#INFO: **** input file is /home/jluis/tmp/pyaim/example/cf2.py ****
#!/usr/bin/env python

import numpy, sys
from pyscf import gto, scf, cc, lib

name = 'cf2_ccsd'

mol = gto.Mole()
mol.basis = 'aug-cc-pvdz'
mol.atom = '''
C      0.000000      0.000000      0.262523
F      0.000000      1.032606     -0.541812
F      0.000000     -1.032606     -0.541812
'''
mol.verbose = 4
mol.spin = 0
mol.symmetry = 1
mol.charge = 0
mol.build()

mf = scf.RHF(mol)
mf.chkfile = name+'.chk'
mf.kernel()

ncore = 3
mcc = cc.CCSD(mf)
mcc.direct = 1
mcc.diis_space = 10
mcc.frozen = ncore
mcc.conv_tol = 1e-6
mcc.conv_tol_normt = 1e-6
mcc.max_cycle = 150
mcc.kernel()

t1norm = numpy.linalg.norm(mcc.t1)
t1norm = t1norm/numpy.sqrt(mol.nelectron-ncore*2)
lib.logger.info(mcc,"* T1 norm should be les than 0.02")
lib.logger.info(mcc,"* T1 norm : %12.6f" % t1norm)

rdm1 = mcc.make_rdm1()
lib.logger.info(mf,'Write rdm1 on MO basis to HDF5 file')
dic = {'rdm1':rdm1}
lib.chkfile.save(name+'.chk', 'rdm', dic)

s = mol.intor('int1e_ovlp')
t = mol.intor('int1e_kin')
s = mf.mo_coeff.T.dot(s).dot(mf.mo_coeff)
t = mf.mo_coeff.T.dot(t).dot(mf.mo_coeff)

ekin = numpy.einsum('ij,ji->',t,rdm1)
pop = numpy.einsum('ij,ji->',s,rdm1)
lib.logger.info(mf,'Population : %12.6f' % pop)
lib.logger.info(mf,'Kinetic energy : %12.6f' % ekin)

#INFO: ******************** input file end ********************


System: ('Linux', 'cromo', '4.9.0-0.bpo.3-amd64', '#1 SMP Debian 4.9.30-2+deb9u5~bpo8+1 (2017-09-28)', 'x86_64', '')  Threads 4
Python 2.7.14 (default, Apr 10 2018, 19:21:27) 
[GCC 7.3.0]
numpy 1.15.4  scipy 1.2.0
Date: Sat Jan  5 02:37:23 2019
PySCF version 1.6
PySCF path  /home/jluis/src/pyscf/dev/pyscf
GIT ORIG_HEAD 21b86f213f74edcb007f36d31e83475226de7b3a
GIT HEAD      ref: refs/heads/dev
GIT dev branch  b2420273effddedd05459f6520b493977f9258d7

[ENV] PYSCF_MAX_MEMORY 32000
[ENV] PYSCF_TMPDIR /scratch-ssd/jluis
[CONFIG] conf_file None
[INPUT] verbose = 4
[INPUT] num. atoms = 3
[INPUT] num. electrons = 24
[INPUT] charge = 0
[INPUT] spin (= nelec alpha-beta = 2S) = 0
[INPUT] symmetry 1 subgroup None
[INPUT] Mole.unit = angstrom
[INPUT]  1 C      0.000000000000   0.000000000000   0.603251250000 AA    0.000000000000   0.000000000000   1.139979646802 Bohr
[INPUT]  2 F      1.032606000000   0.000000000000  -0.201083750000 AA    1.951342534583   0.000000000000  -0.379993215601 Bohr
[INPUT]  3 F     -1.032606000000   0.000000000000  -0.201083750000 AA   -1.951342534583   0.000000000000  -0.379993215601 Bohr

nuclear repulsion = 64.4182921380226
point group symmetry = C2v
num. orbitals of irrep A1 = 27
num. orbitals of irrep A2 = 9
num. orbitals of irrep B1 = 21
num. orbitals of irrep B2 = 12
number of shells = 24
number of NR pGTOs = 105
number of NR cGTOs = 69
basis = aug-cc-pvdz
ecp = {}
CPU time:         0.24


******** <class 'pyscf.scf.hf_symm.SymAdaptedRHF'> ********
method = SymAdaptedRHF-RHF
initial guess = minao
damping factor = 0
level shift factor = 0
DIIS = <class 'pyscf.scf.diis.CDIIS'>
DIIS start cycle = 1
DIIS space = 8
SCF tol = 1e-09
SCF gradient tol = None
max. SCF cycles = 50
direct_scf = True
direct_scf_tol = 1e-13
chkfile to save SCF result = cf2_ccsd.chk
max_memory 32000 MB (current use 74 MB)
Freeze 0 electrons in irreps []
    24 free electrons in irreps A1 A2 B1 B2
Set gradient conv threshold to 3.16228e-05
init E= -236.968923023225
HOMO (A1) = -0.302967578407589  LUMO (B2) = -0.00957482615784566
cycle= 1 E= -236.616630618505  delta_E= 0.352  |g|= 0.575  |ddm|= 1.64
HOMO (A1) = -0.538425625125608  LUMO (B2) = 0.000229797372114953
cycle= 2 E= -236.670223072848  delta_E= -0.0536  |g|= 0.327  |ddm|= 0.591
HOMO (A1) = -0.491330108724559  LUMO (B2) = 0.0512460183218268
cycle= 3 E= -236.688446540856  delta_E= -0.0182  |g|= 0.0565  |ddm|= 0.192
HOMO (A1) = -0.481459895359584  LUMO (B2) = 0.0597490192568647
cycle= 4 E= -236.689421369519  delta_E= -0.000975  |g|= 0.0207  |ddm|= 0.0728
HOMO (A1) = -0.483377806295277  LUMO (B2) = 0.059437684923613
cycle= 5 E= -236.689630569859  delta_E= -0.000209  |g|= 0.00385  |ddm|= 0.0454
HOMO (A1) = -0.482835221401329  LUMO (B2) = 0.0594582937026163
cycle= 6 E= -236.689641869681  delta_E= -1.13e-05  |g|= 0.000651  |ddm|= 0.012
HOMO (A1) = -0.482791382995728  LUMO (B2) = 0.0595080202388127
cycle= 7 E= -236.689642158327  delta_E= -2.89e-07  |g|= 0.00012  |ddm|= 0.00124
HOMO (A1) = -0.482779353671728  LUMO (B2) = 0.0594912530330821
cycle= 8 E= -236.689642167463  delta_E= -9.14e-09  |g|= 2.48e-05  |ddm|= 0.000196
HOMO (A1) = -0.482781085805712  LUMO (B2) = 0.0594886303476792
cycle= 9 E= -236.689642167859  delta_E= -3.96e-10  |g|= 3.98e-06  |ddm|= 4.51e-05
HOMO (A1) = -0.482780596028227  LUMO (B2) = 0.0594892641728537
Extra cycle  E= -236.689642167864  delta_E= -5.17e-12  |g|= 1.43e-06  |ddm|= 4.91e-06
converged SCF energy = -236.689642167864

******** <class 'pyscf.cc.ccsd.CCSD'> ********
CC2 = 0
CCSD nocc = 9, nmo = 66
frozen orbitals 3
max_cycle = 150
direct = 1
conv_tol = 1e-06
conv_tol_normt = 1e-06
diis_space = 10
diis_start_cycle = 0
diis_start_energy_diff = 1e+09
max_memory 32000 MB (current use 105 MB)
Init t2, MP2 energy = -0.520747868715166
Init E(CCSD) = -0.520747868715876
cycle = 1  E(CCSD) = -0.514488956392257  dE = 0.00625891232  norm(t1,t2) = 0.0749796
cycle = 2  E(CCSD) = -0.531538505753306  dE = -0.0170495494  norm(t1,t2) = 0.0254105
cycle = 3  E(CCSD) = -0.530803124827721  dE = 0.000735380926  norm(t1,t2) = 0.0160124
cycle = 4  E(CCSD) = -0.533802293696944  dE = -0.00299916887  norm(t1,t2) = 0.00713392
cycle = 5  E(CCSD) = -0.533731044240863  dE = 7.12494561e-05  norm(t1,t2) = 0.00125873
cycle = 6  E(CCSD) = -0.533612734021431  dE = 0.000118310219  norm(t1,t2) = 0.000450403
cycle = 7  E(CCSD) = -0.533617299079706  dE = -4.56505827e-06  norm(t1,t2) = 9.94213e-05
cycle = 8  E(CCSD) = -0.533623023618086  dE = -5.72453838e-06  norm(t1,t2) = 3.2267e-05
cycle = 9  E(CCSD) = -0.533623301070083  dE = -2.77451997e-07  norm(t1,t2) = 9.4877e-06
cycle = 10  E(CCSD) = -0.533622853940737  dE = 4.47129346e-07  norm(t1,t2) = 3.29084e-06
cycle = 11  E(CCSD) = -0.533622932029498  dE = -7.80887613e-08  norm(t1,t2) = 1.05664e-06
cycle = 12  E(CCSD) = -0.533622985383006  dE = -5.33535079e-08  norm(t1,t2) = 4.05236e-07
CCSD converged
E(CCSD) = -237.2232651532472  E_corr = -0.5336229853830061
* T1 norm should be les than 0.02
* T1 norm :     0.019122
cycle = 1  norm(lambda1,lambda2) = 0.032202
cycle = 2  norm(lambda1,lambda2) = 0.00690985
cycle = 3  norm(lambda1,lambda2) = 0.00463919
cycle = 4  norm(lambda1,lambda2) = 0.00196621
cycle = 5  norm(lambda1,lambda2) = 0.000476343
cycle = 6  norm(lambda1,lambda2) = 0.000180412
cycle = 7  norm(lambda1,lambda2) = 3.85966e-05
cycle = 8  norm(lambda1,lambda2) = 1.54169e-05
cycle = 9  norm(lambda1,lambda2) = 4.58793e-06
cycle = 10  norm(lambda1,lambda2) = 1.9761e-06
cycle = 11  norm(lambda1,lambda2) = 6.0424e-07
Write rdm1 on MO basis to HDF5 file
Population :    24.000000
Kinetic energy :   236.552349
