#INFO: **** input file is /home/jluis/tmp/pyaim/h2o.py ****
#!/usr/bin/env python

from pyscf import gto, scf, lib, dft, ao2mo

name = 'h2o'

mol = gto.Mole()
mol.atom = '''
O      0.000000      0.000000      0.118351
H      0.000000      0.761187     -0.469725
H      0.000000     -0.761187     -0.469725
'''
mol.basis = 'cc-pvdz'
mol.verbose = 4
mol.spin = 0
mol.symmetry = 1
mol.charge = 0
mol.build()

mf = scf.RHF(mol)
mf.max_cycle = 150
mf.chkfile = name+'.chk'
mf.kernel()

s = mol.intor('int1e_ovlp')
lib.logger.info(mf,'Write aom on AO basis to HDF5 file')
atom_dic = {'overlap':s}
lib.chkfile.save(name+'_integrals.h5', 'molecule', atom_dic)

#INFO: ******************** input file end ********************


System: ('Linux', 'cromo', '4.9.0-0.bpo.3-amd64', '#1 SMP Debian 4.9.30-2+deb9u5~bpo8+1 (2017-09-28)', 'x86_64', '')  Threads 4
Python 2.7.14 (default, Apr 10 2018, 19:21:27) 
[GCC 7.3.0]
numpy 1.15.4  scipy 1.2.0
Date: Fri Jan  4 23:47:50 2019
PySCF version 1.6
PySCF path  /home/jluis/src/pyscf/dev/pyscf
GIT ORIG_HEAD 21b86f213f74edcb007f36d31e83475226de7b3a
GIT HEAD      ref: refs/heads/dev
GIT dev branch  b2420273effddedd05459f6520b493977f9258d7

[ENV] PYSCF_MAX_MEMORY 32000
[ENV] PYSCF_TMPDIR /scratch-ssd/jluis
[CONFIG] conf_file None
[INPUT] verbose = 4
[INPUT] num. atoms = 3
[INPUT] num. electrons = 10
[INPUT] charge = 0
[INPUT] spin (= nelec alpha-beta = 2S) = 0
[INPUT] symmetry 1 subgroup None
[INPUT] Mole.unit = angstrom
[INPUT]  1 O      0.000000000000   0.000000000000   0.117615200000 AA    0.000000000000   0.000000000000   0.222260516086 Bohr
[INPUT]  2 H      0.761187000000   0.000000000000  -0.470460800000 AA    1.438434959579   0.000000000000  -0.889042064344 Bohr
[INPUT]  3 H     -0.761187000000   0.000000000000  -0.470460800000 AA   -1.438434959579   0.000000000000  -0.889042064344 Bohr

nuclear repulsion = 9.14985900416406
point group symmetry = C2v
num. orbitals of irrep A1 = 11
num. orbitals of irrep A2 = 2
num. orbitals of irrep B1 = 7
num. orbitals of irrep B2 = 4
number of shells = 11
number of NR pGTOs = 40
number of NR cGTOs = 24
basis = cc-pvdz
ecp = {}
CPU time:         0.28


******** <class 'pyscf.scf.hf_symm.SymAdaptedRHF'> ********
method = SymAdaptedRHF-RHF
initial guess = minao
damping factor = 0
level shift factor = 0
DIIS = <class 'pyscf.scf.diis.CDIIS'>
DIIS start cycle = 1
DIIS space = 8
SCF tol = 1e-09
SCF gradient tol = None
max. SCF cycles = 150
direct_scf = True
direct_scf_tol = 1e-13
chkfile to save SCF result = h2o.chk
max_memory 32000 MB (current use 73 MB)
Freeze 0 electrons in irreps []
    10 free electrons in irreps A1 A2 B1 B2
Set gradient conv threshold to 3.16228e-05
init E= -75.8480974018384
HOMO (B2) = -0.475693880145553  LUMO (A1) = 0.0995068292078956
cycle= 1 E= -75.9874437921359  delta_E= -0.139  |g|= 0.448  |ddm|=  1.3
HOMO (B2) = -0.411717101015011  LUMO (A1) = 0.185962847770116
cycle= 2 E= -76.0173782157012  delta_E= -0.0299  |g|= 0.229  |ddm|= 0.371
HOMO (B2) = -0.499697189144295  LUMO (A1) = 0.180005846679891
cycle= 3 E= -76.0263209969747  delta_E= -0.00894  |g|= 0.0277  |ddm|= 0.134
HOMO (B2) = -0.491067472067274  LUMO (A1) = 0.184781052686105
cycle= 4 E= -76.0265174544435  delta_E= -0.000196  |g|= 0.00613  |ddm|= 0.0187
HOMO (B2) = -0.492477255770502  LUMO (A1) = 0.184900560978941
cycle= 5 E= -76.0265337418064  delta_E= -1.63e-05  |g|= 0.000827  |ddm|= 0.00736
HOMO (B2) = -0.492737667994177  LUMO (A1) = 0.184806548654857
cycle= 6 E= -76.0265341001738  delta_E= -3.58e-07  |g|= 0.000143  |ddm|= 0.00123
HOMO (B2) = -0.492778023849956  LUMO (A1) = 0.184805666439829
cycle= 7 E= -76.0265341113856  delta_E= -1.12e-08  |g|= 1.35e-05  |ddm|= 0.000255
HOMO (B2) = -0.492775161290636  LUMO (A1) = 0.18480501595139
cycle= 8 E= -76.0265341114927  delta_E= -1.07e-10  |g|= 3.41e-06  |ddm|= 2.32e-05
HOMO (B2) = -0.492774883755485  LUMO (A1) = 0.184804941159234
Extra cycle  E= -76.0265341115003  delta_E= -7.62e-12  |g|= 1.57e-06  |ddm|= 5.16e-06
converged SCF energy = -76.0265341115003
Write aom on AO basis to HDF5 file
