From PySCF
GAUSSIAN              1 MOL ORBITALS      6 PRIMITIVES        2 NUCLEI
  H    1    (CENTRE  1)   0.00000000  0.00000000 -0.70864730  CHARGE = 1.0
  H    2    (CENTRE  2)   0.00000000  0.00000000  0.70864730  CHARGE = 1.0
CENTRE ASSIGNMENTS    1  1  1  2  2  2
TYPE ASSIGNMENTS      1  1  1  1  1  1
EXPONENTS  3.4252509E+00 6.2391373E-01 1.6885540E-01 3.4252509E+00 6.2391373E-01
EXPONENTS  1.6885540E-01
MO  1                     OCC NO =   2.00000000 ORB. ENERGY =  -0.57443656
  1.52293573E-01  1.47291710E-01  4.59043917E-02  1.52293573E-01  1.47291710E-01
  4.59043917E-02
END DATA
RHF      ENERGY =        0.0000000000   VIRIAL(-V/T)  =   0.00000000
