[Molden Format]
made by pyscf v[1.6]
[Atoms] (AU)
O   1   8     0.00000000000000     0.00000000000000     0.22226051608594
H   2   1     1.43843495957931     0.00000000000000    -0.88904206434378
H   3   1    -1.43843495957931     0.00000000000000    -0.88904206434378
[GTO]
1 0
 s    1 1.00
         8897.19445619                   1
 s    1 1.00
          1365.2653881                   1
 s    1 1.00
          311.21828724                   1
 s    1 1.00
           86.33353862                   1
 s    1 1.00
           27.42841118                   1
 s    1 1.00
            9.74740298                   1
 s    1 1.00
             3.7710995                   1
 s    1 1.00
            1.04455407                   1
 s    1 1.00
            0.30382295                   1
 p    1 1.00
           34.75998468                   1
 p    1 1.00
            7.80757529                   1
 p    1 1.00
            2.29096903                   1
 p    1 1.00
            0.71677956                   1
 p    1 1.00
            0.21323853                   1
 d    1 1.00
            1.25011953                   1

2 0
 s    1 1.00
           12.98511484                   1
 s    1 1.00
            1.95908134                   1
 s    1 1.00
            0.44403649                   1
 s    1 1.00
            0.11282695                   1
 p    1 1.00
            0.80305095                   1

3 0
 s    1 1.00
           12.98511484                   1
 s    1 1.00
            1.95908134                   1
 s    1 1.00
            0.44403649                   1
 s    1 1.00
            0.11282695                   1
 p    1 1.00
            0.80305095                   1

[5d]
[9g]


[MO]
 Sym= A
 Ene=               0
 Spin= Alpha
 Occup=    0.00000
   1    0.00099195842269834
   2    0.0074294440946872
   3     0.038088916828566
   4      0.14408372817544
   5      0.36017462365693
   6      0.44478811668841
   7      0.15497213438223
   8     0.003769867871672
   9    -0.001454329890695
  10    8.7068140694877e-06
  11    4.1566003795629e-23
  12    -0.00021433819689243
  13    5.3405702713103e-05
  14    2.5976381444134e-22
  15    -0.0012216684512697
  16    0.00016742342732046
  17    8.1079224816277e-22
  18    -0.00036708161809706
  19    0.00026246255500301
  20    1.2739100257762e-21
  21    -2.364692334473e-05
  22    0.00012717347599589
  23    1.1192403614745e-21
  24    -0.0001049461873811
  25    -5.6181224922477e-06
  26    -2.4220797229393e-05
  27    -5.0107326121281e-23
  28    -0.00014100755039783
  29                     0
  30    -1.1986397454668e-05
  31    4.3362589399402e-05
  32    6.5854839915263e-06
  33    7.9738700843174e-05
  34    9.5398155294141e-06
  35    8.294396914921e-23
  36    -1.4008249599369e-05
  37    -3.0084939547852e-05
  38    -8.3737310160614e-05
  39    -0.0003439577180481
  40    -4.3318439643962e-05
  41    -2.9756493945215e-05
  42    8.294396914921e-23
  43    -4.5763320652426e-05
 Sym= A
 Ene=               1
 Spin= Alpha
 Occup=    0.00442
   1    -0.00018141780807511
   2    -0.001369484433276
   3    -0.0070791289485412
   4    -0.028300480144214
   5    -0.079466526387311
   6     -0.14524171522917
   7    -0.058315495379375
   8      0.43793525653893
   9      0.43038888510485
  10    -0.0054310074808946
  11    -2.0507258428622e-20
  12    -0.00027118248409484
  13    -0.033312617984314
  14    -1.2815866782251e-19
  15    -0.00044478893827666
  16     -0.10443290496359
  17    -4.0001743363998e-19
  18    -0.0049429277011611
  19     -0.16371500393828
  20    -6.2850405927527e-19
  21    -0.0079500704631975
  22     -0.07932638666599
  23    -5.5219528558373e-19
  24     0.025934808032675
  25    0.00049827285090876
  26     0.015108090042608
  27    2.4721257568773e-20
  28    0.0064962819803027
  29                     0
  30    0.00022286680299786
  31    0.0040258578809334
  32     -0.03187327760447
  33    -0.030442354762193
  34    -0.011277765875432
  35    -4.0921745058815e-20
  36    0.0036482516465426
  37      0.01151210724352
  38     0.083306350127855
  39       0.1867833673474
  40       0.0463164051274
  41     0.023888226009159
  42    -4.0921745058815e-20
  43     0.023455959387756
 Sym= A
 Ene=               2
 Spin= Alpha
 Occup=    0.01517
   1    8.6417348351448e-05
   2    0.00065781058697702
   3    0.0033605212814207
   4     0.013673099095056
   5     0.037554201811974
   6     0.072555137697232
   7     0.022189053853776
   8     -0.20960317652143
   9     -0.33339681802769
  10    -0.0055840402851659
  11    -4.3008390042865e-20
  12    -0.010923129600122
  13      -0.0342512879025
  14    -2.6877790574831e-19
  15     -0.06745196396156
  16     -0.10737557450713
  17    -8.3892763480867e-19
  18     -0.21283910344884
  19      -0.1683281012765
  20    -1.3181161108843e-18
  21     -0.32069301860687
  22     -0.08156161455822
  23    -1.1580792383769e-18
  24     -0.26186419412258
  25     0.015130721346175
  26      0.01553379989378
  27    5.1846105688314e-20
  28    0.0040591856456031
  29                     0
  30    -0.00074889153005524
  31    -0.0043658804076181
  32    0.00081403725499832
  33    -0.016697783592922
  34    -0.011932964779231
  35    -8.5822216502026e-20
  36    -0.020255799636843
  37     0.010858452711425
  38     0.077148546536546
  39      0.22563190361326
  40     0.062223854606011
  41     0.024898757525592
  42    -8.5822216502026e-20
  43    0.00011004194463606
 Sym= A
 Ene=               3
 Spin= Alpha
 Occup=    0.02509
   1    -8.7342810002741e-24
   2    -4.9392799786145e-23
   3    -3.7370157345487e-22
   4    -7.5516248052258e-22
   5    -4.5042914753478e-21
   6    4.1265989514106e-21
   7    -1.9069435565613e-20
   8    1.1071959455767e-20
   9    -3.7074380607643e-19
  10    -2.3142248796298e-20
  11     0.014660748788304
  12    -3.3115006030301e-20
  13    -1.4194951786773e-19
  14     0.091621317424231
  15    -2.0269615409579e-19
  16    -4.4500256677779e-19
  17       0.2859746038677
  18    -6.4476521261201e-19
  19    -6.9761151428254e-19
  20      0.44932091520355
  21    -9.7222751798048e-19
  22    -3.380203365202e-19
  23      0.39476736455078
  24    -7.4656910251607e-19
  25    4.6050717497418e-20
  26    6.4377591051545e-20
  27    -0.017673359323394
  28    2.1637639462839e-20
  29                     0
  30    -3.5031937202478e-22
  31    3.8056038772891e-21
  32    -1.3698956017714e-20
  33    -8.3773512997043e-20
  34    -5.3950381397625e-20
  35     0.029255174521474
  36    -5.2602205527738e-20
  37    4.7754643089334e-20
  38    3.4163037814349e-19
  39    9.1802623424231e-19
  40    2.4330582263438e-19
  41    1.0768523756882e-19
  42     0.029255174521474
  43    3.1801084698629e-20
 Sym= A
 Ene=               4
 Spin= Alpha
 Occup=    0.62469
   1    -5.889240751435e-05
   2    -0.00044099327226675
   3    -0.0023048768170746
   4    -0.0090526167639134
   5    -0.025914566260635
   6    -0.044631185168524
   7    -0.022360655085483
   8      0.13911897467827
   9      0.05479200067817
  10    0.0086829582526107
  11    -1.4111921409726e-21
  12    -0.0071941061798107
  13     0.053259376323916
  14    -8.8191459359689e-21
  15    -0.043655570861702
  16       0.1669647035449
  17    -2.7526910072821e-20
  18     -0.13996888776503
  19      0.26174343333586
  20    -4.3250051785603e-20
  21     -0.21121135999827
  22      0.12682503314059
  23    -3.7998918773573e-20
  24     -0.15218398160992
  25     0.010042283689571
  26    -0.024154434619751
  27    1.7011754407562e-21
  28    0.0066739051649983
  29                     0
  30      0.01594523432443
  31       0.1140914689487
  32      0.29605212344526
  33     0.080963398135762
  34    -0.032921760208946
  35    -2.8160002578055e-21
  36     0.017832716135989
  37    -0.0021037195379188
  38    -0.012660189348237
  39    -0.053530624590339
  40    -0.041756577851772
  41     0.012760473509829
  42    -2.8160002578055e-21
  43    -0.013835349135859
