[Molden Format]
made by pyscf v[1.6]
[Atoms] (AU)
O   1   8     0.00000000000000     0.00000000000000     0.22226051608594
H   2   1     1.43843495957931     0.00000000000000    -0.88904206434378
H   3   1    -1.43843495957931     0.00000000000000    -0.88904206434378
[GTO]
1 0
 s    5 1.00
          11371.829463  0.0018029986567503
           1706.092902   0.013917989630977
            388.267995   0.070869947201272
            109.750755    0.26879679974404
             35.465902    0.72923745671174
 s    1 1.00
             12.534049                   1
 s    2 1.00
              9.842823   -0.20580205096949
               1.04955     1.0763362665684
 s    1 1.00
               4.58886                   1
 s    1 1.00
              1.972343                   1
 s    1 1.00
              0.432659                   1
 s    1 1.00
              0.191628                   1
 s    1 1.00
              0.063876                   1
 p    4 1.00
            111.643597  0.0083239992661802
             26.229036   0.062320994505961
              8.162528    0.26963897622941
              2.923923     0.7578719331882
 p    1 1.00
             25.608557                   1
 p    1 1.00
              1.105721                   1
 p    1 1.00
              0.413636                   1
 p    1 1.00
              0.147977                   1
 p    1 1.00
             0.0493257                   1
 d    2 1.00
             10.520368   0.083227005066174
              2.971473    0.95432445809141
 d    1 1.00
              1.168394                   1
 d    1 1.00
              0.426819                   1
 d    1 1.00
              0.142273                   1
 f    2 1.00
              4.891229     0.1694800019286
              1.968653    0.88343891005312
 f    1 1.00
              0.747644                   1
 f    1 1.00
             0.2492147                   1
 g    2 1.00
              2.637797    0.45479978564928
              0.972119    0.68574367836209
 g    1 1.00
             0.3318957                   1

2 0
 s    5 1.00
           418.5580082  0.0014549999945954
            62.7453487   0.011278099958107
             14.279584   0.058587499782376
              4.041817    0.23740749911815
             1.3163895    0.76552119715646
 s    1 1.00
             0.4734619                   1
 s    1 1.00
             0.1827999                   1
 s    1 1.00
             0.0728844                   1
 s    1 1.00
             0.0242948                   1
 p    1 1.00
              2.860673                   1
 p    1 1.00
               0.88819                   1
 p    1 1.00
              0.303776                   1
 p    1 1.00
             0.1012587                   1
 d    1 1.00
              1.770613                   1
 d    1 1.00
              0.593081                   1
 d    1 1.00
             0.1976937                   1
 f    1 1.00
              1.451445                   1
 f    1 1.00
              0.483815                   1

3 0
 s    5 1.00
           418.5580082  0.0014549999945954
            62.7453487   0.011278099958107
             14.279584   0.058587499782376
              4.041817    0.23740749911815
             1.3163895    0.76552119715646
 s    1 1.00
             0.4734619                   1
 s    1 1.00
             0.1827999                   1
 s    1 1.00
             0.0728844                   1
 s    1 1.00
             0.0242948                   1
 p    1 1.00
              2.860673                   1
 p    1 1.00
               0.88819                   1
 p    1 1.00
              0.303776                   1
 p    1 1.00
             0.1012587                   1
 d    1 1.00
              1.770613                   1
 d    1 1.00
              0.593081                   1
 d    1 1.00
             0.1976937                   1
 f    1 1.00
              1.451445                   1
 f    1 1.00
              0.483815                   1

[5d]
[9g]


[MO]
 Sym= B1
 Ene=               0
 Spin= Alpha
 Occup=    1.51906
   1    4.5737160014227e-17
   2    5.6849824498187e-17
   3    -1.2274608376623e-16
   4    4.6648422752153e-17
   5    -4.4419006290845e-17
   6    -2.9654122484736e-16
   7    -2.272804206177e-16
   8    -2.4765589129515e-17
   9      0.22201951729437
  10    2.3789891404707e-17
  11    -1.8263295875338e-16
  12    0.0013892746351974
  13    1.2037448828028e-19
  14    -1.0195981092379e-18
  15      0.27597035302845
  16     2.94606293424e-17
  17    -2.2727597301761e-16
  18      0.23297630399894
  19    2.9738960555912e-17
  20    -1.8068803098405e-16
  21      0.07033228652274
  22    1.7335487559523e-17
  23    -1.1181312539937e-16
  24    0.0057681084843465
  25    2.8848452567919e-18
  26    -1.5022588591649e-17
  27    2.1740318534278e-18
  28    -0.0055132667854167
  29    -2.2727075151309e-19
  30    9.0952786263214e-19
  31                     0
  32    6.7287380060287e-18
  33    -0.014677357448543
  34    -8.2766865520651e-19
  35    -1.1770945967764e-18
  36                     0
  37    6.8710350265115e-18
  38    -0.0057813492492661
  39    -8.4240222394977e-19
  40    -1.5208651026603e-17
  41                     0
  42    5.423925395416e-18
  43    0.0016949887258066
  44    -4.2332719249565e-19
  45    5.0030653851575e-19
  46                     0
  47    -8.0356994680612e-20
  48    0.00052129954267683
  49    4.9350165269292e-20
  50    -1.1160659301204e-18
  51                     0
  52    0.0015838237416745
  53    1.2457336403923e-19
  54    -2.2277257908817e-18
  55    -0.0010536405458827
  56    9.9545900824104e-20
  57    3.2081954572145e-18
  58                     0
  59    0.0021780715108166
  60    2.5816310212232e-19
  61    3.0663765510352e-19
  62    0.0017730447823247
  63    3.3789910365958e-20
  64    2.5682536906854e-20
  65                     0
  66    -0.0027819914107871
  67    -1.2313243574359e-19
  68    9.4472390210668e-20
  69    0.00053886115755138
  70    2.5068886608556e-21
  71    -1.5020089543347e-21
  72                     0
  73    -0.00052494981729588
  74    -5.7595754673849e-20
  75    -2.7395952332891e-19
  76                     0
  77    -5.4560671306141e-19
  78    -0.0013768930211911
  79    -2.2968861517583e-20
  80    5.2956792097718e-19
  81                     0
  82    0.0011069487289214
  83    5.3355967356386e-20
  84    -8.1155734250542e-19
  85                     0
  86      0.11953743151692
  87      0.16115893665496
  88        0.113523450797
  89    0.0091827492514663
  90    -0.00023398099103235
  91    -0.0026381247292926
  92    3.0192184864324e-19
  93    0.0037107972246555
  94    -0.010366596580086
  95    1.2730626348712e-18
  96     0.014349457235269
  97    0.0056009347636524
  98    2.8149278189437e-18
  99     0.011075700755415
 100    0.0060109540515168
 101    1.7269662101338e-18
 102    -0.0019789137621833
 103    0.00099728368906518
 104    -0.0028431289993613
 105    1.2754359762897e-19
 106    0.0012462886971902
 107    -1.8078265760598e-19
 108    0.0010939037522986
 109    -0.0027761426821237
 110    2.2302075215985e-19
 111    0.00055539398289737
 112    -3.1008834635344e-19
 113    0.0010580352557347
 114    0.0021708194481468
 115    2.6399057507656e-19
 116    -0.002323993718322
 117    -3.6048747152689e-19
 118    -0.00019376373115532
 119    -0.00072853651402648
 120    1.4604032319405e-20
 121    0.00077723226032358
 122    -6.2852780019199e-20
 123    -0.00025100476055276
 124    5.9997079271898e-20
 125    -0.00039732124533124
 126    0.00020442452196728
 127    4.5382777190312e-21
 128    -7.7772818851781e-05
 129    -1.6932195128482e-20
 130    0.00011053069232531
 131    1.3464200810438e-20
 132     -0.11953743151692
 133     -0.16115893665496
 134       -0.113523450797
 135    -0.0091827492514663
 136    0.00023398099103235
 137    -0.0026381247292926
 138    3.0192184864324e-19
 139    -0.0037107972246555
 140    -0.010366596580086
 141    1.2730626348712e-18
 142    -0.014349457235269
 143    0.0056009347636525
 144    2.8149278189437e-18
 145    -0.011075700755415
 146    0.0060109540515168
 147    1.7269662101338e-18
 148    0.0019789137621833
 149    -0.00099728368906518
 150    -0.0028431289993613
 151    1.2754359762897e-19
 152    -0.0012462886971902
 153    1.8078265760598e-19
 154    -0.0010939037522986
 155    -0.0027761426821237
 156    2.2302075215985e-19
 157    -0.00055539398289737
 158    3.1008834635344e-19
 159    -0.0010580352557347
 160    0.0021708194481468
 161    2.6399057507656e-19
 162     0.002323993718322
 163    3.6048747152689e-19
 164    0.00019376373115532
 165    -0.00072853651402648
 166    1.4604032319405e-20
 167    -0.00077723226032358
 168    6.2852780019199e-20
 169    -0.00025100476055276
 170    5.9997079271898e-20
 171    0.00039732124533124
 172    0.00020442452196727
 173    4.5382777190312e-21
 174    7.7772818851779e-05
 175    1.6932195128482e-20
 176    0.00011053069232531
 177    1.3464200810438e-20
 Sym= A1
 Ene=               1
 Spin= Alpha
 Occup=    1.62436
   1    -0.038843710373391
   2    -0.046108396935968
   3      0.11201314383886
   4    -0.035004154288653
   5     0.025047250596376
   6      0.15711840309509
   7     0.037911211936956
   8      0.01635049019883
   9    -1.0387724798409e-16
  10    -4.3483735111369e-19
  11     -0.20696523298887
  12    -6.5000603351041e-19
  13    -2.2002338192729e-21
  14    -0.0012031449132911
  15    -1.291194627713e-16
  16    -5.3848846165211e-19
  17     -0.25605678572768
  18    -1.090036479668e-16
  19    -5.4357586644759e-19
  20      -0.2566075679018
  21    -3.2906676212272e-17
  22    -3.1686220682605e-19
  23     -0.12016844440032
  24    -2.6987502843417e-18
  25    -5.272989474799e-20
  26    -0.015112946432941
  27    0.0023245283772995
  28    2.579516377886e-18
  29    4.1541094027028e-21
  30    0.0017239581936546
  31                     0
  32    0.0086472829904795
  33    6.8671597795248e-18
  34    1.5128326544552e-20
  35    0.0060810323588673
  36                     0
  37    0.0085501596752193
  38    2.7049452992567e-18
  39    1.5397630254089e-20
  40     0.011078363790344
  41                     0
  42    0.0032769919572073
  43    -7.9304182959463e-19
  44    7.7376761376382e-21
  45    0.0029608298372096
  46                     0
  47    0.00018168448195054
  48    -2.4390270967411e-19
  49    -9.0203417820042e-22
  50    -0.0016583922509516
  51                     0
  52    -7.4103057957232e-19
  53    -2.2769818792626e-21
  54    0.00054394951517934
  55    4.9297143604558e-19
  56    -1.8195238932455e-21
  57    -0.0044337039612542
  58                     0
  59    -1.0190638967843e-18
  60    -4.718767209671e-21
  61    -0.0015735883406916
  62    -8.295622600433e-19
  63    -6.1762010040094e-22
  64    0.0012098790662476
  65                     0
  66    1.3016225563844e-18
  67    2.2506442456616e-21
  68    -0.0003384205043088
  69    -2.5211933966031e-19
  70    -4.5821513275497e-23
  71    0.00075797584551915
  72                     0
  73    2.4561057971379e-19
  74    1.0527490425121e-21
  75    0.0001882756764187
  76                     0
  77    0.0013382376333625
  78    6.4421299331171e-19
  79    4.1983036956727e-22
  80    -0.0013179309535373
  81                     0
  82    -5.1791297008985e-19
  83    -9.7525319122598e-22
  84    0.00024186608595685
  85                     0
  86      0.10334332731709
  87      0.10673781781041
  88     0.044315055345847
  89    -0.0095846458565179
  90    0.00014979275451146
  91    -0.0050089510895306
  92    -5.5186000925336e-21
  93    0.0013215248387707
  94    -0.013903452270909
  95    -2.3269344720072e-20
  96    -9.1943798621139e-05
  97    0.00053686617840535
  98    -5.1451927019875e-20
  99    -0.022694684324558
 100    0.0066302582493661
 101    -3.156590332854e-20
 102    -0.015118649567688
 103    -0.00099592519295323
 104    -0.0018726446724765
 105    -2.3312725224765e-21
 106    0.0024453663264032
 107    3.3043888525328e-21
 108    -0.0025146045658784
 109    -0.0004851194858465
 110    -4.0764268933731e-21
 111    0.0019551482524104
 112    5.6678692998522e-21
 113    -0.002680301859552
 114    0.0035883244729604
 115    -4.8252831605007e-21
 116    -0.00082872352896232
 117    6.5890766192154e-21
 118    -0.00058590761774659
 119    -2.0596164322816e-05
 120    -2.6693601165799e-22
 121    0.00093724625573619
 122    1.1488382148845e-21
 123    -0.00071439157504471
 124    -1.0966410304836e-21
 125    -0.00048548316942764
 126    -0.00019769727202316
 127    -8.2951730564494e-23
 128    0.00047780625503895
 129    3.0949073087205e-22
 130    -0.00043383013902533
 131    -2.4610189746875e-22
 132      0.10334332731709
 133      0.10673781781041
 134     0.044315055345847
 135    -0.0095846458565179
 136    0.00014979275451146
 137    0.0050089510895306
 138    -5.5186000925336e-21
 139    0.0013215248387707
 140     0.013903452270909
 141    -2.3269344720072e-20
 142    -9.1943798621126e-05
 143    -0.00053686617840536
 144    -5.1451927019875e-20
 145    -0.022694684324558
 146    -0.0066302582493661
 147    -3.156590332854e-20
 148    -0.015118649567688
 149    -0.00099592519295323
 150    0.0018726446724765
 151    -2.3312725224765e-21
 152    0.0024453663264032
 153    -3.3043888525328e-21
 154    -0.0025146045658784
 155    0.0004851194858465
 156    -4.0764268933731e-21
 157    0.0019551482524104
 158    -5.6678692998522e-21
 159    -0.002680301859552
 160    -0.0035883244729604
 161    -4.8252831605007e-21
 162    -0.00082872352896232
 163    -6.5890766192154e-21
 164    -0.00058590761774659
 165    2.0596164322817e-05
 166    -2.6693601165799e-22
 167    0.00093724625573619
 168    -1.1488382148845e-21
 169    0.00071439157504471
 170    -1.0966410304836e-21
 171    -0.00048548316942764
 172    0.00019769727202316
 173    -8.2951730564494e-23
 174    0.00047780625503895
 175    -3.0949073087205e-22
 176    0.00043383013902533
 177    -2.4610189746875e-22
 Sym= B2
 Ene=               2
 Spin= Alpha
 Occup=    1.96297
   1    1.2157596633183e-19
   2    2.4038774504785e-19
   3    -2.3997018053128e-18
   4    3.7385093290199e-19
   5    -7.3875248789828e-19
   6    -5.0968421555595e-18
   7    -3.5476508655439e-18
   8    -4.6035844485392e-19
   9    -2.3102875946359e-17
  10      0.27193897366418
  11    -1.6213879684403e-18
  12    -1.4456494610712e-19
  13    0.0013759842044431
  14    -8.4784998577338e-21
  15    -2.8716884481987e-17
  16       0.3367603983803
  17    -2.0299954038088e-18
  18    -2.4243015728173e-17
  19      0.33994196416611
  20    -1.3372753729194e-18
  21    -7.318627255658e-18
  22      0.19815957184119
  23    -1.0142027008808e-18
  24    -6.002170276873e-19
  25     0.032976268994518
  26    -1.4116574935193e-19
  27    1.9930332891893e-20
  28    5.7369874574487e-19
  29    -0.0025979006738186
  30    4.528844273642e-21
  31                     0
  32    5.4977157814873e-20
  33    1.5272944130604e-18
  34    -0.0094609664584827
  35    -4.7990559003564e-20
  36                     0
  37    5.6102721799058e-20
  38    6.0159483335546e-19
  39    -0.0096293838545226
  40    -2.8130909738238e-19
  41                     0
  42    6.1575830423412e-20
  43    -1.7637690028335e-19
  44    -0.0048389948610119
  45    -1.0436114447559e-20
  46                     0
  47    -2.0561060312024e-21
  48    -5.4245315061145e-20
  49    0.00056411494551144
  50    -8.0614204883726e-21
  51                     0
  52    -1.6480930987833e-19
  53    0.0014239809752146
  54    -3.5961975016425e-20
  55    1.0963958088112e-19
  56    0.0011378954885531
  57    7.0621245906469e-20
  58                     0
  59    -2.2664546130859e-19
  60    0.0029510268809053
  61    1.1382717770573e-20
  62    -1.8449924651928e-19
  63    0.00038624781377966
  64    -3.3683510799746e-21
  65                     0
  66    2.894880739788e-19
  67    -0.0014075099222293
  68    3.225315469218e-21
  69    -5.6072739130924e-20
  70    2.8655899176933e-05
  71    -4.0157615915837e-21
  72                     0
  73    5.4625154828034e-20
  74    -0.00065836914288403
  75    -5.0662117055727e-21
  76                     0
  77    -1.4183319564913e-20
  78    1.4327654184478e-19
  79    -0.00026255389404975
  80    1.365195427038e-20
  81                     0
  82    -1.1518671635225e-19
  83    0.00060990471771909
  84    -1.3174309256883e-20
  85                     0
  86    -1.2360342898476e-17
  87    -1.5897712701653e-17
  88    -1.0812834179495e-17
  89    -7.7543459294901e-19
  90    4.4878801182821e-20
  91    2.8042221416047e-19
  92    0.0034512270884345
  93    -4.1161124976259e-19
  94    9.6604014760833e-19
  95     0.014552203725848
  96    -1.5006411088721e-18
  97    -8.9344448111106e-19
  98     0.032177052387505
  99    -1.0546933080408e-18
 100    -6.7412385034329e-19
 101     0.019740713009039
 102    1.6318910504217e-19
 103    -1.1491548452691e-19
 104    2.9774484345824e-19
 105    0.0014579333064883
 106    -1.2402720368775e-19
 107    -0.0020665016720475
 108    -1.1986984733543e-19
 109    2.9550257309401e-19
 110    0.0025493195162785
 111    -2.6560518940415e-20
 112    -0.0035445771995367
 113    -1.0393118276198e-19
 114    -2.4663835192459e-19
 115    0.0030176399220189
 116    2.8243826399625e-19
 117    -0.0041206826613099
 118    2.0621538552726e-20
 119    8.1731611011015e-20
 120    0.00016693668301117
 121    -8.6575438443399e-20
 122    -0.0007184614759099
 123    2.6083431700385e-20
 124    0.00068581835379125
 125    5.5810155056223e-20
 126    -4.0848316397152e-21
 127    5.1876427854236e-05
 128    -8.4938670467528e-21
 129    -0.00019354959158032
 130    -6.5471696110915e-21
 131    0.00015390742594456
 132    1.2517275834657e-17
 133    1.7641995577689e-17
 134    1.2813180620711e-17
 135    1.1356398872451e-18
 136    -3.8163214397476e-21
 137    2.6861301566626e-19
 138    0.0034512270884345
 139    3.6066398971232e-19
 140    1.1914115728017e-18
 141     0.014552203725848
 142    1.4857065279841e-18
 143    -2.7219809486792e-19
 144     0.032177052387505
 145    1.2503341390018e-18
 146    -5.7685018530718e-19
 147     0.019740713009039
 148    -2.4865395914795e-19
 149    9.2634929351807e-20
 150    2.9395499781878e-19
 151    0.0014579333064883
 152    1.3534506696141e-19
 153    0.0020665016720475
 154    1.0778872065526e-19
 155    2.8225636248154e-19
 156    0.0025493195162785
 157    8.9025700186613e-20
 158    0.0035445771995367
 159    1.1626258720918e-19
 160    -2.0514330244216e-19
 161    0.0030176399220189
 162    -2.0122136402935e-19
 163    0.0041206826613099
 164    -1.9703740038432e-20
 165    6.988829079816e-20
 166    0.00016693668301117
 167    7.517881371053e-20
 168    0.0007184614759099
 169    2.615460498814e-20
 170    0.00068581835379125
 171    -2.6878642339637e-20
 172    -3.8459125116499e-20
 173    5.1876427854236e-05
 174    -2.4679613307511e-20
 175    0.00019354959158032
 176    -1.6456005102338e-20
 177    0.00015390742594456
 Sym= A1
 Ene=               3
 Spin= Alpha
 Occup=    1.98515
   1     0.092017553476895
   2      0.11291569889718
   3     -0.25147071740485
   4     0.090735558806028
   5    -0.080824329689022
   6      -0.5328758074846
   7      -0.3541013184243
   8    -0.046622469314259
   9    -1.8606252145155e-16
  10    -2.7400392554612e-18
  11     -0.12830325698727
  12    -1.164275757211e-18
  13    -1.3864326559253e-20
  14    -0.00068499062328732
  15    -2.3127579212897e-16
  16    -3.393175677666e-18
  17     -0.16065112448402
  18    -1.9524481040571e-16
  19    -3.4252329257665e-18
  20    -0.092819490787346
  21    -5.8941676521723e-17
  22    -1.9966428437019e-18
  23    -0.082859132974568
  24    -4.8339390233905e-18
  25    -3.3226672266259e-19
  26    -0.011811858370629
  27    0.0016188933059727
  28    4.6203700108473e-18
  29    2.6176276729066e-20
  30    0.00018276064650631
  31                     0
  32    0.0040543531548073
  33    1.2300297597264e-17
  34    9.5328077257718e-20
  35    -0.0057065081232204
  36                     0
  37    0.0043247713840346
  38    4.845035390669e-18
  39    9.7025039889569e-20
  40     -0.02931570731075
  41                     0
  42    0.0056991177172495
  43    -1.4204781633561e-18
  44    4.8757394710627e-20
  45    -0.0012230620262787
  46                     0
  47    -0.00023595107234223
  48    -4.3687288633003e-19
  49    -5.6839851767715e-21
  50    -0.00052497730573569
  51                     0
  52    -1.3273168165665e-18
  53    -1.4347938872256e-20
  54    -0.003584112580992
  55    8.8299902215623e-19
  56    -1.1465360280053e-20
  57    0.0075636506159218
  58                     0
  59    -1.8253236568702e-18
  60    -2.9734353221421e-20
  61    0.0014799380592728
  62    -1.4858927127945e-18
  63    -3.8918076281308e-21
  64    -0.00075968463114549
  65                     0
  66    2.3314361856813e-18
  67    1.4181977623119e-20
  68    0.00035948841775303
  69    -4.5159032371634e-19
  70    -2.8873495986013e-22
  71    -0.0005009329795572
  72                     0
  73    4.3993198360168e-19
  74    6.633684285042e-21
  75    -0.00052063406707233
  76                     0
  77    -0.0016710062824826
  78    1.1538993977371e-18
  79    2.6454758090648e-21
  80    0.0016344709347576
  81                     0
  82    -9.2767372044876e-19
  83    -6.1453599170562e-21
  84    -0.0013344918148868
  85                     0
  86    -0.0086487223732839
  87     0.068711084082934
  88     0.090938070387094
  89     0.018570576208146
  90    0.0019856315682223
  91    0.0014050071116921
  92    -3.4774337692026e-20
  93    -0.0027569508921054
  94    -0.0088523815850311
  95    -1.4662704990397e-19
  96    -0.00082917670242262
  97    -0.030710884464971
  98    -3.2421386857064e-19
  99     0.013287277165229
 100    -0.0056935278887129
 101    -1.989061289992e-19
 102    -0.0019281557915658
 103    -0.00095573040876012
 104    0.0004899349969483
 105    -1.46900403344e-20
 106    0.00017308922370398
 107    2.0821935254777e-20
 108    -0.00018549269116074
 109    0.00076306304607001
 110    -2.5686776173327e-20
 111     0.002776560317279
 112    3.5714927286358e-20
 113    0.0010649482517695
 114    -0.0026394812398442
 115    -3.0405541852891e-20
 116    0.0041659261310534
 117    4.1519728118229e-20
 118    0.00011667036338478
 119    0.0005740081057244
 120    -1.6820430645294e-21
 121    -0.00067142153300576
 122    7.2391706896736e-21
 123    8.571943124375e-05
 124    -6.910260733073e-21
 125    0.0015304032285356
 126     0.001758177658541
 127    -5.2270348320589e-22
 128    -0.0017513423965545
 129    1.9501929850756e-21
 130    0.00057681876063792
 131    -1.5507611252363e-21
 132    -0.0086487223732837
 133     0.068711084082935
 134     0.090938070387095
 135     0.018570576208146
 136    0.0019856315682223
 137    -0.0014050071116921
 138    -3.4774337692026e-20
 139    -0.0027569508921054
 140    0.0088523815850312
 141    -1.4662704990397e-19
 142    -0.0008291767024226
 143      0.03071088446497
 144    -3.2421386857064e-19
 145     0.013287277165229
 146    0.0056935278887128
 147    -1.989061289992e-19
 148    -0.0019281557915658
 149    -0.00095573040876012
 150    -0.0004899349969483
 151    -1.46900403344e-20
 152    0.00017308922370398
 153    -2.0821935254777e-20
 154    -0.00018549269116074
 155     -0.00076306304607
 156    -2.5686776173327e-20
 157     0.002776560317279
 158    -3.5714927286358e-20
 159    0.0010649482517695
 160    0.0026394812398442
 161    -3.0405541852891e-20
 162    0.0041659261310534
 163    -4.1519728118229e-20
 164    0.00011667036338478
 165    -0.0005740081057244
 166    -1.6820430645294e-21
 167    -0.00067142153300576
 168    -7.2391706896736e-21
 169    -8.5719431243749e-05
 170    -6.910260733073e-21
 171    0.0015304032285356
 172    -0.001758177658541
 173    -5.2270348320589e-22
 174    -0.0017513423965545
 175    -1.9501929850756e-21
 176    -0.00057681876063792
 177    -1.5507611252363e-21
 Sym= A1
 Ene=               4
 Spin= Alpha
 Occup=    2.00000
   1     -0.40841884657846
   2      -0.4524428620647
   3    -0.024726372454096
   4     -0.26611138339961
   5     0.019543772540596
   6     0.011614751708074
   7    -0.022176884630612
   8    -0.0091950114752085
   9    -6.8872014965291e-20
  10    -4.9503045899882e-19
  11    0.0012799098995029
  12    -4.3096275783427e-22
  13    -2.504804968271e-21
  14    0.00019077410953319
  15    -8.5607943460894e-20
  16    -6.130296527069e-19
  17    -0.0010129168519027
  18    -7.227088722249e-20
  19    -6.1882129025728e-19
  20    0.0045538836495391
  21    -2.1817569684717e-20
  22    -3.6072440254441e-19
  23    0.0070495935065629
  24    -1.7893077991364e-21
  25    -6.0029121079878e-20
  26    0.0011073262354436
  27    -5.4115255027262e-05
  28    1.7102541127022e-21
  29    4.729149138372e-21
  30    -3.8065327371833e-05
  31                     0
  32    0.00016399686138544
  33    4.5530194559728e-21
  34    1.7222491154573e-20
  35    -0.00011859289396244
  36                     0
  37    -0.00062916444120857
  38    1.7934151774913e-21
  39    1.752907369308e-20
  40    -0.0019998865499316
  41                     0
  42    -0.00059773421172276
  43    -5.2579741777822e-22
  44    8.8087772593339e-21
  45    -0.0015640001084366
  46                     0
  47    1.6921459465586e-05
  48    -1.6171078264725e-22
  49    -1.0268998100635e-21
  50    -6.5905226309469e-05
  51                     0
  52    -4.9131325825901e-22
  53    -2.5921770104073e-21
  54    -0.00039468879492385
  55    3.2684670396728e-22
  56    -2.0713946162301e-21
  57    0.00082400912345781
  58                     0
  59    -6.7565309355005e-22
  60    -5.3719706730098e-21
  61    -0.0005563875903065
  62    -5.5001095521026e-22
  63    -7.0311522458989e-22
  64    0.0012917976167343
  65                     0
  66    8.6299329181495e-22
  67    2.5621935445965e-21
  68    7.9256693923205e-05
  69    -1.6715851903185e-22
  70    -5.2164435025406e-23
  71    -9.9109590804125e-05
  72                     0
  73    1.6284312349392e-22
  74    1.1984776385712e-21
  75    -6.6686657120132e-05
  76                     0
  77    0.00028222452638993
  78    4.2712189413214e-22
  79    4.7794611023235e-22
  80    -0.00038973457502445
  81                     0
  82    -3.433832770792e-22
  83    -1.1102542908427e-21
  84    -6.3068012773247e-05
  85                     0
  86    0.00019875727735553
  87    0.0050190647192766
  88    0.0071558326897227
  89    0.0045665538095771
  90    0.00015635476345292
  91    -0.00013333514383643
  92    -6.2825217977274e-21
  93    0.00010551371928826
  94    -0.00069091430602897
  95    -2.6490443766794e-20
  96    0.00056826808875719
  97    -0.0011210881808333
  98    -5.8574248471961e-20
  99    0.00012528274405016
 100    -0.0010279051020042
 101    -3.5935467763794e-20
 102    0.00047828114556671
 103    4.5105622397892e-05
 104    -2.5941653292095e-05
 105    -2.6539829292428e-21
 106    2.5779784059789e-06
 107    3.7618045602348e-21
 108    -8.2749152916753e-05
 109    -0.00015917034506645
 110    -4.6407132941393e-21
 111    7.1314576031817e-05
 112    6.4524538516875e-21
 113    -0.00015314192916719
 114    6.0368241444809e-05
 115    -5.4932312774516e-21
 116    -2.3071266621272e-05
 117    7.5011808779411e-21
 118    0.00012097383663989
 119    9.3896061918041e-05
 120    -3.0388708797883e-22
 121    -0.00023720063321185
 122    1.3078681198225e-21
 123    0.00013351125566709
 124    -1.2484454504353e-21
 125    -9.7884421527794e-05
 126    -0.00011646677307713
 127    -9.4434466475608e-23
 128    0.00016240982420594
 129    3.5233251735869e-22
 130    -9.0017131853226e-05
 131    -2.8016897571566e-22
 132    0.00019875727735553
 133    0.0050190647192766
 134    0.0071558326897227
 135    0.0045665538095771
 136    0.00015635476345292
 137    0.00013333514383643
 138    -6.2825217977274e-21
 139    0.00010551371928826
 140    0.00069091430602897
 141    -2.6490443766794e-20
 142    0.00056826808875719
 143    0.0011210881808333
 144    -5.8574248471961e-20
 145    0.00012528274405016
 146    0.0010279051020042
 147    -3.5935467763794e-20
 148    0.00047828114556671
 149    4.5105622397892e-05
 150    2.5941653292095e-05
 151    -2.6539829292428e-21
 152    2.5779784059789e-06
 153    -3.7618045602348e-21
 154    -8.2749152916753e-05
 155    0.00015917034506645
 156    -4.6407132941393e-21
 157    7.1314576031817e-05
 158    -6.4524538516875e-21
 159    -0.00015314192916719
 160    -6.0368241444809e-05
 161    -5.4932312774516e-21
 162    -2.3071266621272e-05
 163    -7.5011808779411e-21
 164    0.00012097383663989
 165    -9.3896061918041e-05
 166    -3.0388708797883e-22
 167    -0.00023720063321185
 168    -1.3078681198225e-21
 169    -0.00013351125566709
 170    -1.2484454504353e-21
 171    -9.7884421527794e-05
 172    0.00011646677307713
 173    -9.4434466475608e-23
 174    0.00016240982420594
 175    -3.5233251735869e-22
 176    9.0017131853226e-05
 177    -2.8016897571566e-22
