[Molden Format]
made by pyscf v[1.6]
[Atoms] (AU)
O   1   8     0.00000000000000     0.00000000000000     0.22226051608594
H   2   1     1.43843495957931     0.00000000000000    -0.88904206434378
H   3   1    -1.43843495957931     0.00000000000000    -0.88904206434378
[GTO]
1 0
 s    1 1.00
         8897.19445619                   1
 s    1 1.00
          1365.2653881                   1
 s    1 1.00
          311.21828724                   1
 s    1 1.00
           86.33353862                   1
 s    1 1.00
           27.42841118                   1
 s    1 1.00
            9.74740298                   1
 s    1 1.00
             3.7710995                   1
 s    1 1.00
            1.04455407                   1
 s    1 1.00
            0.30382295                   1
 p    1 1.00
           34.75998468                   1
 p    1 1.00
            7.80757529                   1
 p    1 1.00
            2.29096903                   1
 p    1 1.00
            0.71677956                   1
 p    1 1.00
            0.21323853                   1
 d    1 1.00
            1.25011953                   1

2 0
 s    1 1.00
           12.98511484                   1
 s    1 1.00
            1.95908134                   1
 s    1 1.00
            0.44403649                   1
 s    1 1.00
            0.11282695                   1
 p    1 1.00
            0.80305095                   1

3 0
 s    1 1.00
           12.98511484                   1
 s    1 1.00
            1.95908134                   1
 s    1 1.00
            0.44403649                   1
 s    1 1.00
            0.11282695                   1
 p    1 1.00
            0.80305095                   1

[5d]
[9g]


[MO]
 Sym= B1
 Ene=               0
 Spin= Alpha
 Occup=    1.54644
   1    3.0002633812524e-20
   2    2.2650945534767e-19
   3    1.1704776648546e-18
   4    4.6788464751569e-18
   5    1.311932911879e-17
   6    2.3949788432499e-17
   7    9.5560487423216e-18
   8    -7.1773507115068e-17
   9    -7.1519174017226e-17
  10     0.011664955550241
  11    -6.7554496112326e-20
  12    -4.0722063487072e-20
  13     0.071550298801124
  14    -4.221770675642e-19
  15    -4.4846080821437e-19
  16      0.22430556368558
  17    -1.3177273919745e-18
  18    -8.4707794321225e-19
  19      0.35163425028701
  20    -2.0704023005647e-18
  21    -1.1956968483841e-18
  22      0.17038068492359
  23    -1.8190278531404e-18
  24    -6.1713517689204e-18
  25    3.6678649469792e-20
  26    -0.032449816984421
  27    8.1436146334932e-20
  28    -1.0095370441341e-18
  29                     0
  30     0.012123762340406
  31     0.085141055440893
  32      0.23482015566181
  33     0.082432911881773
  34    -0.013542649079887
  35    -1.3480338569426e-19
  36     0.021271930775846
  37    -0.012123762340406
  38    -0.085141055440893
  39     -0.23482015566181
  40    -0.082432911881773
  41    -0.013542649079887
  42    -1.3480338569426e-19
  43    -0.021271930775846
 Sym= A1
 Ene=               1
 Spin= Alpha
 Occup=    1.65678
   1    -8.5386493018294e-05
   2    -0.00063916080692696
   3    -0.0033422378447015
   4    -0.013117128128749
   5    -0.037583653903909
   6    -0.064566189208798
   7    -0.032644467162071
   8      0.20162117253801
   9      0.07417774673389
  10    8.9004582800668e-19
  11    1.7870128422439e-20
  12    -0.010880005076426
  13    5.4593474159667e-18
  14    1.116781095049e-19
  15    -0.066046844020856
  16    1.7114701406035e-17
  17    3.4857720914972e-19
  18     -0.21168850518759
  19    2.6829986287068e-17
  20    5.4768160709372e-19
  21     -0.31942540877586
  22    1.3000188224981e-17
  23    4.811857568379e-19
  24      -0.2307975380331
  25     0.015185003740092
  26    -2.4759480738843e-18
  27    -2.1542228526345e-20
  28    0.0099666154485201
  29                     0
  30     0.010352888724567
  31     0.075852902267661
  32       0.1819103438566
  33     0.029501204427359
  34    -0.034204589706504
  35    3.5659415031837e-20
  36    0.0027493836602748
  37     0.010352888724567
  38     0.075852902267661
  39       0.1819103438566
  40     0.029501204427359
  41     0.034204589706504
  42    3.5659415031837e-20
  43    0.0027493836602748
 Sym= B2
 Ene=               2
 Spin= Alpha
 Occup=    1.97457
   1    -3.7946549935913e-21
   2    -2.873398987964e-20
   3    -1.4794531910099e-19
   4    -5.9580064279595e-19
   5    -1.6637867655858e-18
   6    -3.119012721793e-18
   7    -1.1475032977683e-18
   8    9.3759574974121e-18
   9    1.1173497025342e-17
  10    5.3811118437606e-20
  11     0.014660748788304
  12    1.6417369529157e-19
  13    3.3006569004491e-19
  14     0.091621317424231
  15    1.0310813448202e-18
  16    1.0347346118649e-18
  17       0.2859746038677
  18    3.2040635740757e-18
  19    1.6221092491452e-18
  20      0.44932091520356
  21    4.8206754292176e-18
  22    7.8597600963125e-19
  23      0.39476736455078
  24    4.3918602732429e-18
  25    -2.257160751517e-19
  26    -1.4969289317106e-19
  27    -0.017673359323394
  28    2.8813026616887e-20
  29                     0
  30    6.0605147946711e-20
  31    4.4644747207614e-19
  32    4.2986869657854e-19
  33    1.4166207359093e-19
  34    -2.622645366639e-20
  35     0.029255174521474
  36    4.4342286660731e-19
  37    -5.1250093746946e-20
  38    -3.3907380976676e-19
  39    -1.7366093758722e-18
  40    -6.188735607408e-19
  41    -9.871960214292e-20
  42     0.029255174521474
  43    2.4716555873407e-19
 Sym= A1
 Ene=               3
 Spin= Alpha
 Occup=    1.99036
   1    0.00019217337895588
   2     0.001454371665175
   3    0.0074905187154332
   4      0.03010292324405
   5     0.083926162934876
   6      0.15593286159051
   7     0.057850488330281
   8      -0.4630552508788
   9     -0.54211516893058
  10    -1.1170773949788e-18
  11    3.0461953258527e-19
  12    -0.0072640994973365
  13    -6.8519096408443e-18
  14    1.9036983234364e-18
  15    -0.045755091462188
  16    -2.1480294003861e-17
  17    5.9419509480263e-18
  18     -0.14178898629507
  19    -3.3673739312948e-17
  20    9.3359438284141e-18
  21     -0.21327175553977
  22    -1.6316256915803e-17
  23    8.202435755895e-18
  24     -0.19783304693114
  25    0.0099724700481228
  26    3.1075092286784e-18
  27    -3.67215244872e-19
  28    -0.001971996964071
  29                     0
  30    -0.0008325155775235
  31    -0.0070334540118762
  32     0.020773741550006
  33    0.0097531447344404
  34    0.00026205609841705
  35    6.0786101154272e-19
  36    -0.016779710225489
  37    -0.0008325155775235
  38    -0.0070334540118762
  39     0.020773741550006
  40    0.0097531447344404
  41    -0.00026205609841705
  42    6.0786101154272e-19
  43    -0.016779710225489
 Sym= A1
 Ene=               4
 Spin= Alpha
 Occup=    2.00000
   1    -0.00099177051097446
   2    -0.0074280275663205
   3    -0.038081580689769
   4     -0.14405449098269
   5     -0.36009226497516
   6     -0.44463914039704
   7     -0.15490988414801
   8    -0.0042212515864177
   9    0.0010557515811339
  10    2.0656175849852e-21
  11     1.39287633831e-21
  12    0.00021852418516597
  13    1.2670048743692e-20
  14    8.704682616676e-21
  15    0.0012460420171885
  16    3.9719784165779e-20
  17    2.7169639479989e-20
  18    0.00044824002338445
  19    6.2267008883796e-20
  20    4.2688711206492e-20
  21    0.00014653466928217
  22    3.0170825547015e-20
  23    3.7505732426058e-20
  24    0.0001663830220319
  25    -3.2768845958813e-07
  26    -5.7461781404893e-21
  27    -1.6790959572028e-21
  28    0.00013177795244194
  29                     0
  30    1.2208752208654e-05
  31    -4.5069312620909e-05
  32    3.573051836687e-05
  33    -3.5779182509643e-05
  34    7.9584504642931e-06
  35    2.7794515104577e-21
  36    1.7185081113384e-05
  37    1.2208752208654e-05
  38    -4.506931262091e-05
  39    3.573051836687e-05
  40    -3.5779182509643e-05
  41    -7.9584504642931e-06
  42    2.7794515104577e-21
  43    1.7185081113384e-05
