[Molden Format]
made by pyscf v[1.6]
[Atoms] (AU)
O   1   8     0.00000000000000     0.00000000000000     0.22226051608594
H   2   1     1.43843495957931     0.00000000000000    -0.88904206434378
H   3   1    -1.43843495957931     0.00000000000000    -0.88904206434378
[GTO]
1 0
 s    1 1.00
         8897.19445619                   1
 s    1 1.00
          1365.2653881                   1
 s    1 1.00
          311.21828724                   1
 s    1 1.00
           86.33353862                   1
 s    1 1.00
           27.42841118                   1
 s    1 1.00
            9.74740298                   1
 s    1 1.00
             3.7710995                   1
 s    1 1.00
            1.04455407                   1
 s    1 1.00
            0.30382295                   1
 p    1 1.00
           34.75998468                   1
 p    1 1.00
            7.80757529                   1
 p    1 1.00
            2.29096903                   1
 p    1 1.00
            0.71677956                   1
 p    1 1.00
            0.21323853                   1
 d    1 1.00
            1.25011953                   1

2 0
 s    1 1.00
           12.98511484                   1
 s    1 1.00
            1.95908134                   1
 s    1 1.00
            0.44403649                   1
 s    1 1.00
            0.11282695                   1
 p    1 1.00
            0.80305095                   1

3 0
 s    1 1.00
           12.98511484                   1
 s    1 1.00
            1.95908134                   1
 s    1 1.00
            0.44403649                   1
 s    1 1.00
            0.11282695                   1
 p    1 1.00
            0.80305095                   1

[5d]
[9g]


[MO]
 Sym= B1
 Ene=               0
 Spin= Alpha
 Occup=    1.54644
   1    3.0002633812521e-20
   2    2.2650945534767e-19
   3    1.1704776648546e-18
   4    4.6788464751569e-18
   5    1.3119329118791e-17
   6    2.3949788432497e-17
   7    9.5560487423236e-18
   8    -7.177350711507e-17
   9    -7.1519174017224e-17
  10      0.01166495555024
  11    -6.7554496112328e-20
  12    -4.0722063487087e-20
  13     0.071550298801126
  14    -4.221770675642e-19
  15    -4.4846080821428e-19
  16      0.22430556368559
  17    -1.3177273919745e-18
  18    -8.4707794321222e-19
  19        0.351634250287
  20    -2.0704023005647e-18
  21    -1.195696848384e-18
  22      0.17038068492359
  23    -1.8190278531404e-18
  24    -6.1713517689209e-18
  25    3.6678649469775e-20
  26    -0.032449816984421
  27    8.1436146334931e-20
  28    -1.009537044134e-18
  29                     0
  30     0.012123762340406
  31     0.085141055440893
  32      0.23482015566181
  33     0.082432911881773
  34    -0.013542649079889
  35    -1.3480338569426e-19
  36     0.021271930775848
  37    -0.012123762340406
  38    -0.085141055440893
  39     -0.23482015566181
  40    -0.082432911881773
  41    -0.013542649079889
  42    -1.3480338569426e-19
  43    -0.021271930775848
 Sym= A1
 Ene=               1
 Spin= Alpha
 Occup=    1.65678
   1    -8.5386493018284e-05
   2    -0.00063916080692697
   3    -0.0033422378447015
   4    -0.013117128128748
   5     -0.03758365390391
   6    -0.064566189208792
   7    -0.032644467162077
   8      0.20162117253802
   9     0.074177746733884
  10    8.9004582800666e-19
  11    1.787012842244e-20
  12    -0.010880005076426
  13    5.4593474159668e-18
  14    1.116781095049e-19
  15    -0.066046844020857
  16    1.7114701406035e-17
  17    3.4857720914972e-19
  18     -0.21168850518759
  19    2.6829986287067e-17
  20    5.4768160709371e-19
  21     -0.31942540877586
  22    1.3000188224981e-17
  23    4.811857568379e-19
  24     -0.23079753803309
  25     0.015185003740092
  26    -2.4759480738843e-18
  27    -2.1542228526344e-20
  28    0.0099666154485204
  29                     0
  30     0.010352888724568
  31     0.075852902267661
  32      0.18191034385661
  33     0.029501204427358
  34    -0.034204589706503
  35    3.5659415031837e-20
  36    0.0027493836602748
  37     0.010352888724568
  38     0.075852902267661
  39      0.18191034385661
  40     0.029501204427358
  41     0.034204589706503
  42    3.5659415031837e-20
  43    0.0027493836602748
 Sym= B2
 Ene=               2
 Spin= Alpha
 Occup=    1.97457
   1    -3.7946549935911e-21
   2    -2.873398987964e-20
   3    -1.47945319101e-19
   4    -5.9580064279594e-19
   5    -1.6637867655859e-18
   6    -3.1190127217928e-18
   7    -1.1475032977686e-18
   8    9.3759574974124e-18
   9    1.1173497025342e-17
  10    5.3811118437605e-20
  11     0.014660748788304
  12    1.6417369529157e-19
  13    3.3006569004492e-19
  14     0.091621317424231
  15    1.0310813448202e-18
  16    1.0347346118649e-18
  17       0.2859746038677
  18    3.2040635740757e-18
  19    1.6221092491452e-18
  20      0.44932091520355
  21    4.8206754292176e-18
  22    7.8597600963121e-19
  23      0.39476736455078
  24    4.391860273243e-18
  25    -2.257160751517e-19
  26    -1.4969289317106e-19
  27    -0.017673359323394
  28    2.8813026616868e-20
  29                     0
  30    6.0605147946722e-20
  31    4.464474720761e-19
  32    4.2986869657869e-19
  33    1.4166207359096e-19
  34    -2.622645366644e-20
  35     0.029255174521474
  36    4.4342286660734e-19
  37    -5.1250093746936e-20
  38    -3.3907380976679e-19
  39    -1.7366093758722e-18
  40    -6.1887356074077e-19
  41    -9.8719602142885e-20
  42     0.029255174521474
  43    2.4716555873409e-19
 Sym= A1
 Ene=               3
 Spin= Alpha
 Occup=    1.99036
   1    0.00019217337895587
   2     0.001454371665175
   3    0.0074905187154333
   4     0.030102923244049
   5     0.083926162934879
   6       0.1559328615905
   7     0.057850488330294
   8     -0.46305525087881
   9     -0.54211516893056
  10    -1.1170773949788e-18
  11    3.0461953258528e-19
  12    -0.0072640994973365
  13    -6.8519096408445e-18
  14    1.9036983234364e-18
  15    -0.045755091462187
  16    -2.1480294003861e-17
  17    5.9419509480264e-18
  18     -0.14178898629507
  19    -3.3673739312948e-17
  20    9.335943828414e-18
  21     -0.21327175553978
  22    -1.6316256915802e-17
  23    8.202435755895e-18
  24     -0.19783304693115
  25    0.0099724700481226
  26    3.1075092286783e-18
  27    -3.67215244872e-19
  28    -0.0019719969640701
  29                     0
  30    -0.00083251557752404
  31    -0.0070334540118745
  32         0.02077374155
  33    0.0097531447344389
  34    0.00026205609841906
  35    6.0786101154272e-19
  36     -0.01677971022549
  37    -0.00083251557752404
  38    -0.0070334540118744
  39         0.02077374155
  40    0.0097531447344389
  41    -0.00026205609841906
  42    6.0786101154272e-19
  43     -0.01677971022549
 Sym= A1
 Ene=               4
 Spin= Alpha
 Occup=    2.00000
   1    -0.00099177051097449
   2    -0.0074280275663204
   3    -0.038081580689769
   4     -0.14405449098269
   5     -0.36009226497517
   6     -0.44463914039702
   7     -0.15490988414802
   8    -0.0042212515864043
   9     0.001055751581126
  10    2.0656175849851e-21
  11     1.39287633831e-21
  12    0.00021852418516537
  13    1.2670048743692e-20
  14    8.7046826166761e-21
  15     0.001246042017189
  16    3.9719784165779e-20
  17    2.7169639479989e-20
  18    0.00044824002338428
  19    6.2267008883796e-20
  20    4.2688711206492e-20
  21    0.00014653466928189
  22    3.0170825547014e-20
  23    3.7505732426058e-20
  24    0.00016638302203349
  25    -3.2768845965156e-07
  26    -5.7461781404892e-21
  27    -1.6790959572028e-21
  28    0.00013177795244183
  29                     0
  30    1.2208752208683e-05
  31    -4.5069312620977e-05
  32    3.5730518367901e-05
  33    -3.5779182508559e-05
  34    7.9584504643823e-06
  35    2.7794515104577e-21
  36    1.7185081113167e-05
  37    1.2208752208683e-05
  38    -4.5069312620977e-05
  39    3.5730518367901e-05
  40    -3.5779182508559e-05
  41    -7.9584504643823e-06
  42    2.7794515104577e-21
  43    1.7185081113167e-05
