From PySCF
GAUSSIAN              5 MOL ORBITALS     44 PRIMITIVES        3 NUCLEI
  O    1    (CENTRE  1)   0.00000000  0.00000000  0.22226052  CHARGE = 8.0
  H    2    (CENTRE  2)   1.43843496  0.00000000 -0.88904206  CHARGE = 1.0
  H    3    (CENTRE  3)  -1.43843496  0.00000000 -0.88904206  CHARGE = 1.0
CENTRE ASSIGNMENTS    1  1  1  1  1  1  1  1  1  1  1  1  1  1  1  1  1  1  1  1
CENTRE ASSIGNMENTS    1  1  1  1  1  1  1  1  1  1  2  2  2  2  2  2  2  3  3  3
CENTRE ASSIGNMENTS    3  3  3  3
TYPE ASSIGNMENTS      1  1  1  1  1  1  1  1  1  2  3  4  2  3  4  2  3  4  2  3
TYPE ASSIGNMENTS      4  2  3  4  5  8  9  6 10  7  1  1  1  1  2  3  4  1  1  1
TYPE ASSIGNMENTS      1  2  3  4
EXPONENTS  8.8971945E+03 1.3652654E+03 3.1121829E+02 8.6333539E+01 2.7428411E+01
EXPONENTS  9.7474030E+00 3.7710995E+00 1.0445541E+00 3.0382295E-01 3.4759985E+01
EXPONENTS  3.4759985E+01 3.4759985E+01 7.8075753E+00 7.8075753E+00 7.8075753E+00
EXPONENTS  2.2909690E+00 2.2909690E+00 2.2909690E+00 7.1677956E-01 7.1677956E-01
EXPONENTS  7.1677956E-01 2.1323853E-01 2.1323853E-01 2.1323853E-01 1.2501195E+00
EXPONENTS  1.2501195E+00 1.2501195E+00 1.2501195E+00 1.2501195E+00 1.2501195E+00
EXPONENTS  1.2985115E+01 1.9590813E+00 4.4403649E-01 1.1282695E-01 8.0305095E-01
EXPONENTS  8.0305095E-01 8.0305095E-01 1.2985115E+01 1.9590813E+00 4.4403649E-01
EXPONENTS  1.1282695E-01 8.0305095E-01 8.0305095E-01 8.0305095E-01
MO  1                     OCC NO =   2.00000000 ORB. ENERGY = -20.55408174
  6.47208729E-01  1.18844152E+00  2.01003561E+00  2.90628798E+00  3.07406878E+00
  1.74661613E+00  2.98473040E-01  3.97876930E-03  5.09862600E-05  0.00000000E+00
  0.00000000E+00 -2.56567584E-02  0.00000000E+00  0.00000000E+00 -2.25198773E-02
  0.00000000E+00  0.00000000E+00 -1.38559106E-03  0.00000000E+00  0.00000000E+00
  7.49270439E-06  0.00000000E+00  0.00000000E+00  8.02892396E-06 -2.40769754E-04
  0.00000000E+00  0.00000000E+00  2.56974836E-04  0.00000000E+00 -1.62050817E-05
 -3.11059458E-06  1.55599402E-04  3.55882954E-05  5.93765784E-06 -4.42755980E-05
  0.00000000E+00  2.31158156E-05 -3.11059458E-06  1.55599402E-04  3.55882954E-05
  5.93765784E-06  4.42755980E-05  0.00000000E+00  2.31158156E-05
MO  2                     OCC NO =   2.00000000 ORB. ENERGY =  -1.34374422
 -1.31688139E-01 -2.43556091E-01 -4.15601262E-01 -6.33739453E-01 -7.52728754E-01
 -6.27807880E-01 -1.25514139E-01  3.51927946E-01  1.31359300E-01  0.00000000E+00
  0.00000000E+00 -2.37013965E-01  0.00000000E+00  0.00000000E+00 -1.99697514E-01
  0.00000000E+00  0.00000000E+00 -1.52685653E-01  0.00000000E+00  0.00000000E+00
 -5.43839519E-02  0.00000000E+00  0.00000000E+00 -1.96175950E-03  1.37308124E-02
  0.00000000E+00  0.00000000E+00 -2.07192348E-02  0.00000000E+00  6.98842246E-03
  3.70266787E-02  6.64856112E-02  4.15993845E-02  1.76023821E-03 -2.51985960E-02
  0.00000000E+00  1.54371319E-02  3.70266787E-02  6.64856112E-02  4.15993845E-02
  1.76023821E-03  2.51985960E-02  0.00000000E+00  1.54371319E-02
MO  3                     OCC NO =   2.00000000 ORB. ENERGY =  -0.70891524
  0.00000000E+00  0.00000000E+00  0.00000000E+00  0.00000000E+00  0.00000000E+00
  0.00000000E+00  0.00000000E+00  0.00000000E+00  0.00000000E+00  1.40337148E+00
  0.00000000E+00  0.00000000E+00  1.33105734E+00  0.00000000E+00  0.00000000E+00
  9.01164670E-01  0.00000000E+00  0.00000000E+00  3.30569875E-01  0.00000000E+00
  0.00000000E+00  3.51918864E-02  0.00000000E+00  0.00000000E+00  0.00000000E+00
  0.00000000E+00 -1.36724874E-01  0.00000000E+00  0.00000000E+00  0.00000000E+00
  5.91060386E-02  1.00482047E-01  9.10352228E-02  1.14372172E-02 -1.46748134E-02
  0.00000000E+00  2.30502624E-02 -5.91060386E-02 -1.00482047E-01 -9.10352228E-02
 -1.14372172E-02 -1.46748134E-02  0.00000000E+00 -2.30502624E-02
MO  4                     OCC NO =   2.00000000 ORB. ENERGY =  -0.57511722
 -4.39027292E-02 -8.22841239E-02 -1.37839942E-01 -2.16298274E-01 -2.48528752E-01
 -2.27162326E-01 -2.89483341E-02  1.20242934E-01  9.06231035E-02  0.00000000E+00
  0.00000000E+00  1.55592662E+00  0.00000000E+00  0.00000000E+00  1.48132183E+00
  0.00000000E+00  0.00000000E+00  1.01217315E+00  0.00000000E+00  0.00000000E+00
  3.56952901E-01  0.00000000E+00  0.00000000E+00  6.27565238E-02  9.11267640E-03
  0.00000000E+00  0.00000000E+00  3.45243544E-02  0.00000000E+00 -4.36370308E-02
 -3.45396668E-02 -6.05180406E-02 -5.75139974E-02 -3.93531934E-03  2.71819116E-02
  0.00000000E+00  1.00585104E-02 -3.45396668E-02 -6.05180406E-02 -5.75139974E-02
 -3.93531934E-03 -2.71819116E-02  0.00000000E+00  1.00585104E-02
MO  5                     OCC NO =   2.00000000 ORB. ENERGY =  -0.50250579
  0.00000000E+00  0.00000000E+00  0.00000000E+00  0.00000000E+00  0.00000000E+00
  0.00000000E+00  0.00000000E+00  0.00000000E+00  0.00000000E+00  0.00000000E+00
  1.76378527E+00  0.00000000E+00  0.00000000E+00  1.70444050E+00  0.00000000E+00
  0.00000000E+00  1.14892473E+00  0.00000000E+00  0.00000000E+00  4.22404696E-01
  0.00000000E+00  0.00000000E+00  8.15386337E-02  0.00000000E+00  0.00000000E+00
  0.00000000E+00  0.00000000E+00  0.00000000E+00 -7.44653759E-02  0.00000000E+00
  0.00000000E+00  0.00000000E+00  0.00000000E+00  0.00000000E+00  0.00000000E+00
  3.17009047E-02  0.00000000E+00  0.00000000E+00  0.00000000E+00  0.00000000E+00
  0.00000000E+00  0.00000000E+00  3.17009047E-02  0.00000000E+00
END DATA
RHF      ENERGY =        0.0000000000   VIRIAL(-V/T)  =   0.00000000
