From PySCF
GAUSSIAN              5 MOL ORBITALS     59 PRIMITIVES        3 NUCLEI
  O    1    (CENTRE  1)   0.00000000  0.00000000  0.22226052  CHARGE = 8.0
  H    2    (CENTRE  2)   1.43843496  0.00000000 -0.88904206  CHARGE = 1.0
  H    3    (CENTRE  3)  -1.43843496  0.00000000 -0.88904206  CHARGE = 1.0
CENTRE ASSIGNMENTS    1  1  1  1  1  1  1  1  1  1  1  1  1  1  1  1  1  1  1  1
CENTRE ASSIGNMENTS    1  1  1  1  1  1  1  1  1  1  1  1  1  1  1  1  1  2  2  2
CENTRE ASSIGNMENTS    2  2  2  2  2  2  2  2  3  3  3  3  3  3  3  3  3  3  3
TYPE ASSIGNMENTS      1  1  1  1  1  1  1  1  1  1  2  2  2  3  3  3  4  4  4  2
TYPE ASSIGNMENTS      3  4  2  3  4  5  8  9  6 10  7  5  8  9  6 10  7  1  1  1
TYPE ASSIGNMENTS      1  1  2  3  4  2  3  4  1  1  1  1  1  2  3  4  2  3  4
EXPONENTS  1.1720000E+04 1.7590000E+03 4.0080000E+02 1.1370000E+02 3.7030000E+01
EXPONENTS  1.3270000E+01 5.0250000E+00 1.0130000E+00 3.0230000E-01 7.8960000E-02
EXPONENTS  1.7700000E+01 3.8540000E+00 1.0460000E+00 1.7700000E+01 3.8540000E+00
EXPONENTS  1.0460000E+00 1.7700000E+01 3.8540000E+00 1.0460000E+00 2.7530000E-01
EXPONENTS  2.7530000E-01 2.7530000E-01 6.8560000E-02 6.8560000E-02 6.8560000E-02
EXPONENTS  1.1850000E+00 1.1850000E+00 1.1850000E+00 1.1850000E+00 1.1850000E+00
EXPONENTS  1.1850000E+00 3.3200000E-01 3.3200000E-01 3.3200000E-01 3.3200000E-01
EXPONENTS  3.3200000E-01 3.3200000E-01 1.3010000E+01 1.9620000E+00 4.4460000E-01
EXPONENTS  1.2200000E-01 2.9740000E-02 7.2700000E-01 7.2700000E-01 7.2700000E-01
EXPONENTS  1.4100000E-01 1.4100000E-01 1.4100000E-01 1.3010000E+01 1.9620000E+00
EXPONENTS  4.4460000E-01 1.2200000E-01 2.9740000E-02 7.2700000E-01 7.2700000E-01
EXPONENTS  7.2700000E-01 1.4100000E-01 1.4100000E-01 1.4100000E-01
MO  1                     OCC NO =   2.00000000 ORB. ENERGY = -20.57799463
  5.69979186E-01  1.05884243E+00  1.77714786E+00  2.60045488E+00  3.02799335E+00
  2.22211267E+00  6.47538458E-01  1.28522796E-02 -2.10281430E-03 -4.77937787E-04
  0.00000000E+00  0.00000000E+00  0.00000000E+00  0.00000000E+00  0.00000000E+00
  0.00000000E+00 -5.29559709E-03 -4.19139153E-03 -1.82472904E-03  0.00000000E+00
  0.00000000E+00  4.31443559E-04  0.00000000E+00  0.00000000E+00  3.33254511E-05
  1.94644725E-04  0.00000000E+00  0.00000000E+00 -1.95986570E-04  0.00000000E+00
  1.34184582E-06 -5.92128484E-05  0.00000000E+00  0.00000000E+00  5.49433889E-05
  0.00000000E+00  4.26945948E-06  5.46711741E-05  9.27354876E-05  1.05549079E-04
  5.27067041E-04  1.62648187E-05  3.36414238E-04  0.00000000E+00 -2.70591408E-04
 -1.46000766E-04  0.00000000E+00  1.24230233E-04  5.46711741E-05  9.27354876E-05
  1.05549079E-04  5.27067041E-04  1.62648187E-05 -3.36414238E-04  0.00000000E+00
 -2.70591408E-04  1.46000766E-04  0.00000000E+00  1.24230233E-04
MO  2                     OCC NO =   2.00000000 ORB. ENERGY =  -1.35415872
 -1.16617650E-01 -2.21821453E-01 -3.63258841E-01 -5.78041682E-01 -6.86922854E-01
 -7.35902609E-01 -2.50526255E-01  3.53703435E-01  1.09936719E-01  6.19964793E-03
  0.00000000E+00  0.00000000E+00  0.00000000E+00  0.00000000E+00  0.00000000E+00
  0.00000000E+00 -2.51450836E-01 -1.99019844E-01 -8.66436088E-02  0.00000000E+00
  0.00000000E+00  4.99587856E-03  0.00000000E+00  0.00000000E+00 -5.69138720E-04
  9.99707761E-03  0.00000000E+00  0.00000000E+00 -1.59879633E-02  0.00000000E+00
  5.99088570E-03 -3.36638912E-03  0.00000000E+00  0.00000000E+00  4.68158234E-03
  0.00000000E+00 -1.31519322E-03  3.33659895E-02  5.65967597E-02  6.44169347E-02
 -3.82073542E-03 -1.02077533E-04 -3.52800970E-02  0.00000000E+00  2.13710112E-02
  6.17674827E-04  0.00000000E+00 -9.72951633E-04  3.33659895E-02  5.65967597E-02
  6.44169347E-02 -3.82073542E-03 -1.02077533E-04  3.52800970E-02  0.00000000E+00
  2.13710112E-02 -6.17674827E-04  0.00000000E+00 -9.72951633E-04
MO  3                     OCC NO =   2.00000000 ORB. ENERGY =  -0.71695969
  0.00000000E+00  0.00000000E+00  0.00000000E+00  0.00000000E+00  0.00000000E+00
  0.00000000E+00  0.00000000E+00  0.00000000E+00  0.00000000E+00  0.00000000E+00
  1.61860793E+00  1.28110569E+00  5.57731422E-01  0.00000000E+00  0.00000000E+00
  0.00000000E+00  0.00000000E+00  0.00000000E+00  0.00000000E+00  5.52390629E-02
  0.00000000E+00  0.00000000E+00  9.73007651E-04  0.00000000E+00  0.00000000E+00
  0.00000000E+00  0.00000000E+00 -1.09356516E-01  0.00000000E+00  0.00000000E+00
  0.00000000E+00  0.00000000E+00  0.00000000E+00  1.27734633E-02  0.00000000E+00
  0.00000000E+00  0.00000000E+00  5.70587172E-02  9.67853361E-02  1.10158509E-01
  1.19075815E-02 -2.40731522E-04 -2.50055223E-02  0.00000000E+00  3.30629797E-02
 -5.32579147E-04  0.00000000E+00  1.31762262E-04 -5.70587172E-02 -9.67853361E-02
 -1.10158509E-01 -1.19075815E-02  2.40731522E-04 -2.50055223E-02  0.00000000E+00
 -3.30629797E-02 -5.32579147E-04  0.00000000E+00 -1.31762262E-04
MO  4                     OCC NO =   2.00000000 ORB. ENERGY =  -0.58453298
 -3.74342970E-02 -7.12889138E-02 -1.16600578E-01 -1.86298436E-01 -2.21596987E-01
 -2.40792810E-01 -8.23360624E-02  1.19326041E-01  9.19732112E-02  8.07964158E-03
  0.00000000E+00  0.00000000E+00  0.00000000E+00  0.00000000E+00  0.00000000E+00
  0.00000000E+00  1.77965593E+00  1.40857295E+00  6.13224497E-01  0.00000000E+00
  0.00000000E+00  9.24319150E-02  0.00000000E+00  0.00000000E+00  1.96371688E-03
  7.66383029E-03  0.00000000E+00  0.00000000E+00  2.45105681E-02  0.00000000E+00
 -3.21743983E-02  4.30756443E-03  0.00000000E+00  0.00000000E+00 -4.16968214E-04
  0.00000000E+00 -3.89059622E-03 -3.46084584E-02 -5.87042864E-02 -6.68156657E-02
 -8.61158644E-03 -1.83149966E-04  2.94211183E-02  0.00000000E+00 -9.17437068E-04
  2.37639059E-04  0.00000000E+00  1.63020133E-03 -3.46084584E-02 -5.87042864E-02
 -6.68156657E-02 -8.61158644E-03 -1.83149966E-04 -2.94211183E-02  0.00000000E+00
 -9.17437068E-04 -2.37639059E-04  0.00000000E+00  1.63020133E-03
MO  5                     OCC NO =   2.00000000 ORB. ENERGY =  -0.50902413
  0.00000000E+00  0.00000000E+00  0.00000000E+00  0.00000000E+00  0.00000000E+00
  0.00000000E+00  0.00000000E+00  0.00000000E+00  0.00000000E+00  0.00000000E+00
  0.00000000E+00  0.00000000E+00  0.00000000E+00  2.03896028E+00  1.61380874E+00
  7.02574229E-01  0.00000000E+00  0.00000000E+00  0.00000000E+00  0.00000000E+00
  1.28016612E-01  0.00000000E+00  0.00000000E+00  3.44854946E-03  0.00000000E+00
  0.00000000E+00  0.00000000E+00  0.00000000E+00  0.00000000E+00 -5.29561160E-02
  0.00000000E+00  0.00000000E+00  0.00000000E+00  0.00000000E+00  0.00000000E+00
 -7.95935058E-03  0.00000000E+00  0.00000000E+00  0.00000000E+00  0.00000000E+00
  0.00000000E+00  0.00000000E+00  0.00000000E+00  2.49219441E-02  0.00000000E+00
  0.00000000E+00  1.96220638E-03  0.00000000E+00  0.00000000E+00  0.00000000E+00
  0.00000000E+00  0.00000000E+00  0.00000000E+00  0.00000000E+00  2.49219441E-02
  0.00000000E+00  0.00000000E+00  1.96220638E-03  0.00000000E+00
END DATA
RHF      ENERGY =        0.0000000000   VIRIAL(-V/T)  =   0.00000000
