From PySCF
GAUSSIAN              5 MOL ORBITALS    273 PRIMITIVES        3 NUCLEI
  O    1    (CENTRE  1)   0.00000000  0.00000000  0.22226052  CHARGE = 8.0
  H    2    (CENTRE  2)   1.43843496  0.00000000 -0.88904206  CHARGE = 1.0
  H    3    (CENTRE  3)  -1.43843496  0.00000000 -0.88904206  CHARGE = 1.0
CENTRE ASSIGNMENTS    1  1  1  1  1  1  1  1  1  1  1  1  1  1  1  1  1  1  1  1
CENTRE ASSIGNMENTS    1  1  1  1  1  1  1  1  1  1  1  1  1  1  1  1  1  1  1  1
CENTRE ASSIGNMENTS    1  1  1  1  1  1  1  1  1  1  1  1  1  1  1  1  1  1  1  1
CENTRE ASSIGNMENTS    1  1  1  1  1  1  1  1  1  1  1  1  1  1  1  1  1  1  1  1
CENTRE ASSIGNMENTS    1  1  1  1  1  1  1  1  1  1  1  1  1  1  1  1  1  1  1  1
CENTRE ASSIGNMENTS    1  1  1  1  1  1  1  1  1  1  1  1  1  1  1  1  1  1  1  1
CENTRE ASSIGNMENTS    1  1  1  1  1  1  1  1  1  1  1  1  1  1  1  1  1  1  1  1
CENTRE ASSIGNMENTS    1  1  1  1  1  1  1  1  1  1  1  1  1  1  1  2  2  2  2  2
CENTRE ASSIGNMENTS    2  2  2  2  2  2  2  2  2  2  2  2  2  2  2  2  2  2  2  2
CENTRE ASSIGNMENTS    2  2  2  2  2  2  2  2  2  2  2  2  2  2  2  2  2  2  2  2
CENTRE ASSIGNMENTS    2  2  2  2  2  2  2  2  2  2  2  2  2  2  3  3  3  3  3  3
CENTRE ASSIGNMENTS    3  3  3  3  3  3  3  3  3  3  3  3  3  3  3  3  3  3  3  3
CENTRE ASSIGNMENTS    3  3  3  3  3  3  3  3  3  3  3  3  3  3  3  3  3  3  3  3
CENTRE ASSIGNMENTS    3  3  3  3  3  3  3  3  3  3  3  3  3
TYPE ASSIGNMENTS      1  1  1  1  1  1  1  1  1  1  1  1  1  2  2  2  2  3  3  3
TYPE ASSIGNMENTS      3  4  4  4  4  2  3  4  2  3  4  2  3  4  2  3  4  2  3  4
TYPE ASSIGNMENTS      5  5  8  8  9  9  6  6 10 10  7  7  5  8  9  6 10  7  5  8
TYPE ASSIGNMENTS      9  6 10  7  5  8  9  6 10  7 11 11 14 14 15 15 17 17 20 20
TYPE ASSIGNMENTS     18 18 12 12 16 16 19 19 13 13 11 14 15 17 20 18 12 16 19 13
TYPE ASSIGNMENTS     11 14 15 17 20 18 12 16 19 13 21 21 24 24 25 25 30 30 33 33
TYPE ASSIGNMENTS     31 31 26 26 34 34 35 35 28 28 22 22 27 27 32 32 29 29 23 23
TYPE ASSIGNMENTS     21 24 25 30 33 31 26 34 35 28 22 27 32 29 23  1  1  1  1  1
TYPE ASSIGNMENTS      1  1  1  1  2  3  4  2  3  4  2  3  4  2  3  4  5  8  9  6
TYPE ASSIGNMENTS     10  7  5  8  9  6 10  7  5  8  9  6 10  7 11 14 15 17 20 18
TYPE ASSIGNMENTS     12 16 19 13 11 14 15 17 20 18 12 16 19 13  1  1  1  1  1  1
TYPE ASSIGNMENTS      1  1  1  2  3  4  2  3  4  2  3  4  2  3  4  5  8  9  6 10
TYPE ASSIGNMENTS      7  5  8  9  6 10  7  5  8  9  6 10  7 11 14 15 17 20 18 12
TYPE ASSIGNMENTS     16 19 13 11 14 15 17 20 18 12 16 19 13
EXPONENTS  1.1371829E+04 1.7060929E+03 3.8826799E+02 1.0975075E+02 3.5465902E+01
EXPONENTS  1.2534049E+01 9.8428230E+00 1.0495500E+00 4.5888600E+00 1.9723430E+00
EXPONENTS  4.3265900E-01 1.9162800E-01 6.3876000E-02 1.1164360E+02 2.6229036E+01
EXPONENTS  8.1625280E+00 2.9239230E+00 1.1164360E+02 2.6229036E+01 8.1625280E+00
EXPONENTS  2.9239230E+00 1.1164360E+02 2.6229036E+01 8.1625280E+00 2.9239230E+00
EXPONENTS  2.5608557E+01 2.5608557E+01 2.5608557E+01 1.1057210E+00 1.1057210E+00
EXPONENTS  1.1057210E+00 4.1363600E-01 4.1363600E-01 4.1363600E-01 1.4797700E-01
EXPONENTS  1.4797700E-01 1.4797700E-01 4.9325700E-02 4.9325700E-02 4.9325700E-02
EXPONENTS  1.0520368E+01 2.9714730E+00 1.0520368E+01 2.9714730E+00 1.0520368E+01
EXPONENTS  2.9714730E+00 1.0520368E+01 2.9714730E+00 1.0520368E+01 2.9714730E+00
EXPONENTS  1.0520368E+01 2.9714730E+00 1.1683940E+00 1.1683940E+00 1.1683940E+00
EXPONENTS  1.1683940E+00 1.1683940E+00 1.1683940E+00 4.2681900E-01 4.2681900E-01
EXPONENTS  4.2681900E-01 4.2681900E-01 4.2681900E-01 4.2681900E-01 1.4227300E-01
EXPONENTS  1.4227300E-01 1.4227300E-01 1.4227300E-01 1.4227300E-01 1.4227300E-01
EXPONENTS  4.8912290E+00 1.9686530E+00 4.8912290E+00 1.9686530E+00 4.8912290E+00
EXPONENTS  1.9686530E+00 4.8912290E+00 1.9686530E+00 4.8912290E+00 1.9686530E+00
EXPONENTS  4.8912290E+00 1.9686530E+00 4.8912290E+00 1.9686530E+00 4.8912290E+00
EXPONENTS  1.9686530E+00 4.8912290E+00 1.9686530E+00 4.8912290E+00 1.9686530E+00
EXPONENTS  7.4764400E-01 7.4764400E-01 7.4764400E-01 7.4764400E-01 7.4764400E-01
EXPONENTS  7.4764400E-01 7.4764400E-01 7.4764400E-01 7.4764400E-01 7.4764400E-01
EXPONENTS  2.4921470E-01 2.4921470E-01 2.4921470E-01 2.4921470E-01 2.4921470E-01
EXPONENTS  2.4921470E-01 2.4921470E-01 2.4921470E-01 2.4921470E-01 2.4921470E-01
EXPONENTS  2.6377970E+00 9.7211900E-01 2.6377970E+00 9.7211900E-01 2.6377970E+00
EXPONENTS  9.7211900E-01 2.6377970E+00 9.7211900E-01 2.6377970E+00 9.7211900E-01
EXPONENTS  2.6377970E+00 9.7211900E-01 2.6377970E+00 9.7211900E-01 2.6377970E+00
EXPONENTS  9.7211900E-01 2.6377970E+00 9.7211900E-01 2.6377970E+00 9.7211900E-01
EXPONENTS  2.6377970E+00 9.7211900E-01 2.6377970E+00 9.7211900E-01 2.6377970E+00
EXPONENTS  9.7211900E-01 2.6377970E+00 9.7211900E-01 2.6377970E+00 9.7211900E-01
EXPONENTS  3.3189570E-01 3.3189570E-01 3.3189570E-01 3.3189570E-01 3.3189570E-01
EXPONENTS  3.3189570E-01 3.3189570E-01 3.3189570E-01 3.3189570E-01 3.3189570E-01
EXPONENTS  3.3189570E-01 3.3189570E-01 3.3189570E-01 3.3189570E-01 3.3189570E-01
EXPONENTS  4.1855801E+02 6.2745349E+01 1.4279584E+01 4.0418170E+00 1.3163895E+00
EXPONENTS  4.7346190E-01 1.8279990E-01 7.2884400E-02 2.4294800E-02 2.8606730E+00
EXPONENTS  2.8606730E+00 2.8606730E+00 8.8819000E-01 8.8819000E-01 8.8819000E-01
EXPONENTS  3.0377600E-01 3.0377600E-01 3.0377600E-01 1.0125870E-01 1.0125870E-01
EXPONENTS  1.0125870E-01 1.7706130E+00 1.7706130E+00 1.7706130E+00 1.7706130E+00
EXPONENTS  1.7706130E+00 1.7706130E+00 5.9308100E-01 5.9308100E-01 5.9308100E-01
EXPONENTS  5.9308100E-01 5.9308100E-01 5.9308100E-01 1.9769370E-01 1.9769370E-01
EXPONENTS  1.9769370E-01 1.9769370E-01 1.9769370E-01 1.9769370E-01 1.4514450E+00
EXPONENTS  1.4514450E+00 1.4514450E+00 1.4514450E+00 1.4514450E+00 1.4514450E+00
EXPONENTS  1.4514450E+00 1.4514450E+00 1.4514450E+00 1.4514450E+00 4.8381500E-01
EXPONENTS  4.8381500E-01 4.8381500E-01 4.8381500E-01 4.8381500E-01 4.8381500E-01
EXPONENTS  4.8381500E-01 4.8381500E-01 4.8381500E-01 4.8381500E-01 4.1855801E+02
EXPONENTS  6.2745349E+01 1.4279584E+01 4.0418170E+00 1.3163895E+00 4.7346190E-01
EXPONENTS  1.8279990E-01 7.2884400E-02 2.4294800E-02 2.8606730E+00 2.8606730E+00
EXPONENTS  2.8606730E+00 8.8819000E-01 8.8819000E-01 8.8819000E-01 3.0377600E-01
EXPONENTS  3.0377600E-01 3.0377600E-01 1.0125870E-01 1.0125870E-01 1.0125870E-01
EXPONENTS  1.7706130E+00 1.7706130E+00 1.7706130E+00 1.7706130E+00 1.7706130E+00
EXPONENTS  1.7706130E+00 5.9308100E-01 5.9308100E-01 5.9308100E-01 5.9308100E-01
EXPONENTS  5.9308100E-01 5.9308100E-01 1.9769370E-01 1.9769370E-01 1.9769370E-01
EXPONENTS  1.9769370E-01 1.9769370E-01 1.9769370E-01 1.4514450E+00 1.4514450E+00
EXPONENTS  1.4514450E+00 1.4514450E+00 1.4514450E+00 1.4514450E+00 1.4514450E+00
EXPONENTS  1.4514450E+00 1.4514450E+00 1.4514450E+00 4.8381500E-01 4.8381500E-01
EXPONENTS  4.8381500E-01 4.8381500E-01 4.8381500E-01 4.8381500E-01 4.8381500E-01
EXPONENTS  4.8381500E-01 4.8381500E-01 4.8381500E-01
MO  1                     OCC NO =   2.00000000 ORB. ENERGY = -18.81120143
  5.77898357E-01  1.07537966E+00  1.80423917E+00  2.65285207E+00  3.08468291E+00
  2.14786233E+00 -2.02225421E-02  1.97354310E-02  5.94570516E-01 -2.31513302E-02
 -4.35096994E-03  4.59999091E-03  8.34032679E-04  0.00000000E+00  0.00000000E+00
  0.00000000E+00  0.00000000E+00  0.00000000E+00  0.00000000E+00  0.00000000E+00
  0.00000000E+00 -5.42985360E-03 -6.64930260E-03 -6.68693861E-03 -5.20855254E-03
  0.00000000E+00  0.00000000E+00 -1.56578337E-02  0.00000000E+00  0.00000000E+00
  1.67575496E-03  0.00000000E+00  0.00000000E+00 -2.15139587E-03  0.00000000E+00
  0.00000000E+00 -9.20490016E-04  0.00000000E+00  0.00000000E+00 -3.66213031E-05
  5.16009379E-05  6.47494200E-05  0.00000000E+00  0.00000000E+00  0.00000000E+00
  0.00000000E+00 -5.04937037E-04 -6.33600505E-04  0.00000000E+00  0.00000000E+00
  4.53336099E-04  5.68851085E-04  4.03791616E-04  0.00000000E+00  0.00000000E+00
 -4.84901862E-05  0.00000000E+00 -3.55301430E-04  5.28984306E-04  0.00000000E+00
  0.00000000E+00 -7.62200976E-04  0.00000000E+00  2.33216670E-04  5.73296404E-05
  0.00000000E+00  0.00000000E+00 -8.96800447E-05  0.00000000E+00  3.23504044E-05
  0.00000000E+00  0.00000000E+00  0.00000000E+00  0.00000000E+00  1.35714830E-03
  9.12799760E-04  0.00000000E+00  0.00000000E+00  0.00000000E+00  0.00000000E+00
  0.00000000E+00  0.00000000E+00  0.00000000E+00  0.00000000E+00 -9.08804762E-04
 -6.11249905E-04  0.00000000E+00  0.00000000E+00 -1.49447845E-04 -1.00516618E-04
  0.00000000E+00  0.00000000E+00 -1.67917769E-03  0.00000000E+00  0.00000000E+00
  0.00000000E+00  0.00000000E+00  7.70611245E-04  0.00000000E+00  3.02855482E-04
  0.00000000E+00  0.00000000E+00 -2.15422891E-04  0.00000000E+00  0.00000000E+00
  0.00000000E+00  0.00000000E+00  1.07703981E-04  0.00000000E+00  3.59063036E-05
 -2.61355304E-04 -2.53155606E-05  0.00000000E+00  0.00000000E+00  0.00000000E+00
  0.00000000E+00 -2.59630094E-03 -2.51484522E-04  0.00000000E+00  0.00000000E+00
  4.16443276E-03  4.03377885E-04  0.00000000E+00  0.00000000E+00  0.00000000E+00
  0.00000000E+00  0.00000000E+00  0.00000000E+00  0.00000000E+00  0.00000000E+00
  5.48089541E-04  5.30893912E-05  0.00000000E+00  0.00000000E+00 -6.92236307E-04
 -6.70518252E-05  0.00000000E+00  0.00000000E+00 -5.78699409E-04 -5.60543433E-05
 -1.48046708E-05  0.00000000E+00  0.00000000E+00 -2.64201217E-05  0.00000000E+00
  1.15248146E-04  0.00000000E+00  0.00000000E+00  0.00000000E+00  0.00000000E+00
  8.51614918E-06  0.00000000E+00 -2.46767734E-05  0.00000000E+00 -1.50952288E-05
 -1.79252894E-05 -3.34740712E-05 -5.72964976E-05 -9.00976288E-05 -1.25251222E-04
 -2.04598818E-03 -1.43030403E-03 -4.57168889E-04 -6.88236358E-06  7.02471195E-04
  0.00000000E+00 -5.54605450E-04  8.50817380E-04  0.00000000E+00 -6.98145049E-04
  3.63308587E-04  0.00000000E+00 -4.21947354E-05  8.38774402E-05  0.00000000E+00
 -3.90075518E-05  9.11378451E-05  0.00000000E+00  1.98556306E-04  1.09780461E-04
  0.00000000E+00 -2.00918306E-04 -6.83472616E-05  0.00000000E+00  1.81571706E-04
  1.38711988E-05  0.00000000E+00  5.44760629E-05 -5.54115068E-06  0.00000000E+00
 -9.90275533E-06 -9.17883679E-06  0.00000000E+00  1.47199875E-05 -1.63457313E-04
  0.00000000E+00  2.18366942E-03  1.27473584E-03  0.00000000E+00 -7.84363899E-04
  0.00000000E+00 -9.47343049E-04  0.00000000E+00 -4.12108790E-04  1.74858329E-09
  0.00000000E+00 -1.32061593E-04 -8.16184655E-05  0.00000000E+00  8.16132198E-05
  0.00000000E+00  4.80926219E-05  0.00000000E+00  2.79896569E-05 -1.79252894E-05
 -3.34740712E-05 -5.72964976E-05 -9.00976288E-05 -1.25251222E-04 -2.04598818E-03
 -1.43030403E-03 -4.57168889E-04 -6.88236358E-06 -7.02471195E-04  0.00000000E+00
 -5.54605450E-04 -8.50817380E-04  0.00000000E+00 -6.98145049E-04 -3.63308587E-04
  0.00000000E+00 -4.21947354E-05 -8.38774402E-05  0.00000000E+00 -3.90075518E-05
  9.11378451E-05  0.00000000E+00 -1.98556306E-04  1.09780461E-04  0.00000000E+00
 -2.00918306E-04 -6.83472616E-05  0.00000000E+00 -1.81571706E-04  1.38711988E-05
  0.00000000E+00  5.44760629E-05 -5.54115068E-06  0.00000000E+00  9.90275533E-06
 -9.17883679E-06  0.00000000E+00  1.47199875E-05  1.63457313E-04  0.00000000E+00
  2.18366942E-03 -1.27473584E-03  0.00000000E+00  7.84363899E-04  0.00000000E+00
 -9.47343049E-04  0.00000000E+00 -4.12108790E-04 -1.74858329E-09  0.00000000E+00
 -1.32061593E-04  8.16184655E-05  0.00000000E+00 -8.16132198E-05  0.00000000E+00
  4.80926219E-05  0.00000000E+00  2.79896569E-05
MO  2                     OCC NO =   2.00000000 ORB. ENERGY =  -0.93273775
 -1.31960703E-01 -2.45558504E-01 -4.11990562E-01 -6.05767814E-01 -7.04374603E-01
 -5.38082286E-01 -2.10787100E-01  2.05709760E-01 -2.00267699E-01  8.95669666E-02
  1.87147728E-01  5.79724269E-02  4.06354790E-03  0.00000000E+00  0.00000000E+00
  0.00000000E+00  0.00000000E+00  0.00000000E+00  0.00000000E+00  0.00000000E+00
  0.00000000E+00 -2.22602397E-01 -2.72594955E-01 -2.74137881E-01 -2.13529934E-01
  0.00000000E+00  0.00000000E+00 -2.82660492E-02  0.00000000E+00  0.00000000E+00
 -1.01148737E-01  0.00000000E+00  0.00000000E+00 -5.28235038E-02  0.00000000E+00
  0.00000000E+00 -3.14024594E-03  0.00000000E+00  0.00000000E+00 -6.68985772E-05
  5.87564143E-03  7.37281899E-03  0.00000000E+00  0.00000000E+00  0.00000000E+00
  0.00000000E+00 -9.68747193E-03 -1.21559455E-02  0.00000000E+00  0.00000000E+00
  3.81183050E-03  4.78312651E-03  1.22411793E-02  0.00000000E+00  0.00000000E+00
 -1.89384154E-02  0.00000000E+00  6.69723607E-03  8.71718865E-03  0.00000000E+00
  0.00000000E+00 -9.76954301E-03  0.00000000E+00  1.05235436E-03  1.87289662E-04
  0.00000000E+00  0.00000000E+00 -8.86954401E-05  0.00000000E+00 -9.85942218E-05
  0.00000000E+00  0.00000000E+00  0.00000000E+00  0.00000000E+00 -1.72770093E-02
 -1.16202849E-02  0.00000000E+00  0.00000000E+00  0.00000000E+00  0.00000000E+00
  0.00000000E+00  0.00000000E+00  0.00000000E+00  0.00000000E+00  9.39664582E-03
  6.32005807E-03  0.00000000E+00  0.00000000E+00  2.62678782E-03  1.76674229E-03
  0.00000000E+00  0.00000000E+00 -1.60132230E-02  0.00000000E+00  0.00000000E+00
  0.00000000E+00  0.00000000E+00  9.23213936E-03  0.00000000E+00  2.26036120E-03
  0.00000000E+00  0.00000000E+00  3.82699480E-04  0.00000000E+00  0.00000000E+00
  0.00000000E+00  0.00000000E+00  3.55201097E-05  0.00000000E+00 -1.39406530E-04
 -2.24122742E-03 -2.17091169E-04  0.00000000E+00  0.00000000E+00  0.00000000E+00
  0.00000000E+00 -1.90336312E-02 -1.84364747E-03  0.00000000E+00  0.00000000E+00
  3.24809957E-02  3.14619448E-03  0.00000000E+00  0.00000000E+00  0.00000000E+00
  0.00000000E+00  0.00000000E+00  0.00000000E+00  0.00000000E+00  0.00000000E+00
  4.98752114E-03  4.83104386E-04  0.00000000E+00  0.00000000E+00 -1.08914956E-02
 -1.05497885E-03  0.00000000E+00  0.00000000E+00 -3.59825002E-03 -3.48535939E-04
  1.50192931E-04  0.00000000E+00  0.00000000E+00 -1.82412927E-04  0.00000000E+00
 -7.18744658E-04  0.00000000E+00  0.00000000E+00  0.00000000E+00  0.00000000E+00
  2.48680955E-05  0.00000000E+00  3.32043541E-05  0.00000000E+00  1.14256717E-04
  7.49188892E-03  1.39905146E-02  2.39471166E-02  3.76563753E-02  5.23488474E-02
  1.01033760E-02 -6.88226492E-03 -2.00045209E-03 -5.80177260E-05 -2.38247814E-02
  0.00000000E+00  1.53805570E-02 -4.06259891E-03  0.00000000E+00  6.54043515E-04
  7.21516874E-03  0.00000000E+00 -8.14256522E-03  7.08500834E-04  0.00000000E+00
 -7.43078510E-04  6.11763097E-03  0.00000000E+00 -1.28167941E-02 -6.09257372E-03
  0.00000000E+00 -2.50572485E-05  1.69405617E-04  0.00000000E+00 -1.01213900E-03
  8.96158764E-04  0.00000000E+00 -1.06556438E-03 -1.71467056E-04  0.00000000E+00
  7.33879927E-04  4.25098793E-04  0.00000000E+00 -2.53631737E-04 -6.12736691E-04
  0.00000000E+00  9.98477399E-03  5.39729386E-03  0.00000000E+00 -3.55908378E-03
  0.00000000E+00 -4.96831192E-03  0.00000000E+00 -1.67215402E-03  8.38496922E-05
  0.00000000E+00  1.50513106E-03  7.34785588E-04  0.00000000E+00 -9.86334665E-04
  0.00000000E+00 -2.65739339E-04  0.00000000E+00 -4.13130574E-04  7.49188892E-03
  1.39905146E-02  2.39471166E-02  3.76563753E-02  5.23488474E-02  1.01033760E-02
 -6.88226492E-03 -2.00045209E-03 -5.80177260E-05  2.38247814E-02  0.00000000E+00
  1.53805570E-02  4.06259891E-03  0.00000000E+00  6.54043515E-04 -7.21516874E-03
  0.00000000E+00 -8.14256522E-03 -7.08500834E-04  0.00000000E+00 -7.43078510E-04
  6.11763097E-03  0.00000000E+00  1.28167941E-02 -6.09257372E-03  0.00000000E+00
 -2.50572485E-05  1.69405617E-04  0.00000000E+00  1.01213900E-03  8.96158764E-04
  0.00000000E+00 -1.06556438E-03 -1.71467056E-04  0.00000000E+00 -7.33879927E-04
  4.25098793E-04  0.00000000E+00 -2.53631737E-04  6.12736691E-04  0.00000000E+00
  9.98477399E-03 -5.39729386E-03  0.00000000E+00  3.55908378E-03  0.00000000E+00
 -4.96831192E-03  0.00000000E+00 -1.67215402E-03 -8.38496922E-05  0.00000000E+00
  1.50513106E-03 -7.34785588E-04  0.00000000E+00  9.86334665E-04  0.00000000E+00
 -2.65739339E-04  0.00000000E+00 -4.13130574E-04
MO  3                     OCC NO =   2.00000000 ORB. ENERGY =  -0.48907851
  0.00000000E+00  0.00000000E+00  0.00000000E+00  0.00000000E+00  0.00000000E+00
  0.00000000E+00  0.00000000E+00  0.00000000E+00  0.00000000E+00  0.00000000E+00
  0.00000000E+00  0.00000000E+00  0.00000000E+00  9.55994846E-01  1.17069437E+00
  1.17732066E+00  9.17031978E-01  0.00000000E+00  0.00000000E+00  0.00000000E+00
  0.00000000E+00  0.00000000E+00  0.00000000E+00  0.00000000E+00  0.00000000E+00
  1.14080017E-01  0.00000000E+00  0.00000000E+00  4.46025270E-01  0.00000000E+00
  0.00000000E+00  1.10160209E-01  0.00000000E+00  0.00000000E+00  9.20105438E-03
  0.00000000E+00  0.00000000E+00  1.91123935E-04  0.00000000E+00  0.00000000E+00
  0.00000000E+00  0.00000000E+00  0.00000000E+00  0.00000000E+00 -8.03891597E-02
 -1.00873195E-01  0.00000000E+00  0.00000000E+00  0.00000000E+00  0.00000000E+00
  0.00000000E+00  0.00000000E+00  0.00000000E+00  0.00000000E+00 -5.49413417E-02
  0.00000000E+00  0.00000000E+00  0.00000000E+00  0.00000000E+00  0.00000000E+00
 -3.71471792E-03  0.00000000E+00  0.00000000E+00  0.00000000E+00  0.00000000E+00
  0.00000000E+00  1.59257999E-04  0.00000000E+00  0.00000000E+00  0.00000000E+00
  8.28123865E-03  5.56985015E-03  0.00000000E+00  0.00000000E+00  0.00000000E+00
  0.00000000E+00 -3.61788424E-02 -2.43334046E-02  0.00000000E+00  0.00000000E+00
  1.13351265E-02  7.62385419E-03  0.00000000E+00  0.00000000E+00  0.00000000E+00
  0.00000000E+00  0.00000000E+00  0.00000000E+00  0.00000000E+00  0.00000000E+00
  1.81130376E-03  0.00000000E+00  0.00000000E+00 -3.45905285E-03  0.00000000E+00
 -1.97485843E-03  0.00000000E+00  0.00000000E+00  0.00000000E+00  0.00000000E+00
 -2.12225006E-04  0.00000000E+00  0.00000000E+00  3.56105489E-04  0.00000000E+00
  2.80569530E-04  0.00000000E+00  0.00000000E+00  0.00000000E+00  0.00000000E+00
  0.00000000E+00  0.00000000E+00  0.00000000E+00  0.00000000E+00 -1.73189624E-02
 -1.67756015E-03  0.00000000E+00  0.00000000E+00  0.00000000E+00  0.00000000E+00
  0.00000000E+00  0.00000000E+00  0.00000000E+00  0.00000000E+00  1.46947657E-02
  1.42337357E-03  0.00000000E+00  0.00000000E+00  1.24207072E-02  1.20310229E-03
  0.00000000E+00  0.00000000E+00  0.00000000E+00  0.00000000E+00  0.00000000E+00
  0.00000000E+00  0.00000000E+00  0.00000000E+00  0.00000000E+00  0.00000000E+00
  0.00000000E+00  0.00000000E+00  2.99155566E-04  0.00000000E+00  0.00000000E+00
  0.00000000E+00  0.00000000E+00 -1.97284040E-04  0.00000000E+00 -2.33394219E-04
  0.00000000E+00  0.00000000E+00  0.00000000E+00  0.00000000E+00  0.00000000E+00
  1.14708010E-02  2.14208206E-02  3.66653339E-02  5.76555249E-02  8.01511098E-02
  6.55583875E-02  2.26192209E-02  9.18033977E-04 -1.02618501E-05 -1.39900957E-02
  0.00000000E+00  1.96785268E-02 -1.27411502E-02  0.00000000E+00  1.76363176E-02
  1.80049710E-03  0.00000000E+00  3.56043552E-03  4.89411230E-04  0.00000000E+00
 -1.61122945E-04  2.59752412E-03  0.00000000E+00 -2.20284040E-02 -7.05865081E-03
  0.00000000E+00  4.46112669E-03 -4.35194031E-05  0.00000000E+00 -3.17220603E-03
 -6.78149659E-04  0.00000000E+00  7.21669063E-04 -2.45196093E-04  0.00000000E+00
  3.62728132E-04  1.43126344E-04  0.00000000E+00  1.02069749E-04  8.43198846E-04
  0.00000000E+00  6.11295913E-03  3.54521363E-03  0.00000000E+00 -6.07481017E-03
  0.00000000E+00 -4.13417004E-03  0.00000000E+00 -6.59596362E-04 -1.08641295E-05
  0.00000000E+00  1.27999778E-04 -1.11317805E-04  0.00000000E+00  1.43910193E-04
  0.00000000E+00  2.14567584E-04  0.00000000E+00 -1.14189120E-04 -1.14708010E-02
 -2.14208206E-02 -3.66653339E-02 -5.76555249E-02 -8.01511098E-02 -6.55583875E-02
 -2.26192209E-02 -9.18033977E-04  1.02618501E-05 -1.39900957E-02  0.00000000E+00
 -1.96785268E-02 -1.27411502E-02  0.00000000E+00 -1.76363176E-02  1.80049710E-03
  0.00000000E+00 -3.56043552E-03  4.89411230E-04  0.00000000E+00  1.61122945E-04
 -2.59752412E-03  0.00000000E+00 -2.20284040E-02  7.05865081E-03  0.00000000E+00
 -4.46112669E-03  4.35194031E-05  0.00000000E+00 -3.17220603E-03  6.78149659E-04
  0.00000000E+00 -7.21669063E-04  2.45196093E-04  0.00000000E+00  3.62728132E-04
 -1.43126344E-04  0.00000000E+00 -1.02069749E-04  8.43198846E-04  0.00000000E+00
 -6.11295913E-03  3.54521363E-03  0.00000000E+00 -6.07481017E-03  0.00000000E+00
  4.13417004E-03  0.00000000E+00  6.59596362E-04 -1.08641295E-05  0.00000000E+00
 -1.27999778E-04 -1.11317805E-04  0.00000000E+00  1.43910193E-04  0.00000000E+00
 -2.14567584E-04  0.00000000E+00  1.14189120E-04
MO  4                     OCC NO =   2.00000000 ORB. ENERGY =  -0.34718347
 -5.11154569E-02 -9.51179771E-02 -1.59586038E-01 -2.34646360E-01 -2.72842057E-01
 -2.15724780E-01 -7.69005098E-02  7.50481667E-02 -8.48466253E-02  4.53124279E-02
  9.79425555E-02  4.51992389E-02  1.87136920E-03  0.00000000E+00  0.00000000E+00
  0.00000000E+00  0.00000000E+00  0.00000000E+00  0.00000000E+00  0.00000000E+00
  0.00000000E+00  1.02462254E+00  1.25473462E+00  1.26183660E+00  9.82862654E-01
  0.00000000E+00  0.00000000E+00  1.10116946E-01  0.00000000E+00  0.00000000E+00
  4.77963195E-01  0.00000000E+00  0.00000000E+00  1.17719304E-01  0.00000000E+00
  0.00000000E+00  1.88357758E-02  0.00000000E+00  0.00000000E+00  6.32037025E-04
  1.81064954E-03  2.27202280E-03  0.00000000E+00  0.00000000E+00  0.00000000E+00
  0.00000000E+00  2.17295629E-02  2.72664926E-02  0.00000000E+00  0.00000000E+00
 -2.35402124E-02 -2.95385154E-02  9.00845199E-03  0.00000000E+00  0.00000000E+00
  1.05152733E-02  0.00000000E+00 -1.95237253E-02  5.68827342E-03  0.00000000E+00
  0.00000000E+00 -2.29311569E-03  0.00000000E+00 -3.39515773E-03  1.11338765E-04
  0.00000000E+00  0.00000000E+00  2.31391347E-04  0.00000000E+00 -3.42730112E-04
  0.00000000E+00  0.00000000E+00  0.00000000E+00  0.00000000E+00  2.63173602E-02
  1.77007038E-02  0.00000000E+00  0.00000000E+00  0.00000000E+00  0.00000000E+00
  0.00000000E+00  0.00000000E+00  0.00000000E+00  0.00000000E+00 -2.72092133E-02
 -1.83005523E-02  0.00000000E+00  0.00000000E+00  2.97284347E-04  1.99949468E-04
  0.00000000E+00  0.00000000E+00 -5.48278986E-03  0.00000000E+00  0.00000000E+00
  0.00000000E+00  0.00000000E+00  6.59498783E-04  0.00000000E+00  1.60776369E-03
  0.00000000E+00  0.00000000E+00 -5.25412112E-05  0.00000000E+00  0.00000000E+00
  0.00000000E+00  0.00000000E+00  3.28091867E-05  0.00000000E+00  6.57734150E-06
  2.00401991E-03  1.94114627E-04  0.00000000E+00  0.00000000E+00  0.00000000E+00
  0.00000000E+00 -7.36830219E-03 -7.13713085E-04  0.00000000E+00  0.00000000E+00
 -4.65581727E-03 -4.50974679E-04  0.00000000E+00  0.00000000E+00  0.00000000E+00
  0.00000000E+00  0.00000000E+00  0.00000000E+00  0.00000000E+00  0.00000000E+00
  4.03029697E-04  3.90385140E-05  0.00000000E+00  0.00000000E+00  4.95012401E-03
  4.79482001E-04  0.00000000E+00  0.00000000E+00 -4.90511221E-05 -4.75122041E-06
  3.95885501E-05  0.00000000E+00  0.00000000E+00 -1.71301635E-04  0.00000000E+00
 -6.62296653E-05  0.00000000E+00  0.00000000E+00  0.00000000E+00  0.00000000E+00
  2.82405684E-05  0.00000000E+00  1.85822506E-06  0.00000000E+00  1.07285734E-05
 -6.55008947E-03 -1.22317780E-02 -2.09367434E-02 -3.29226221E-02 -4.57681151E-02
 -5.06408104E-02 -1.89443324E-02 -6.02194769E-04 -6.52730422E-05  1.39096287E-02
  0.00000000E+00  5.12921367E-03  1.98462545E-02  0.00000000E+00  7.89923533E-04
  6.74047208E-03  0.00000000E+00  2.27325741E-03 -6.56585422E-05  0.00000000E+00
  9.93848443E-04 -1.03619108E-02  0.00000000E+00  7.78817113E-03  4.18737247E-03
  0.00000000E+00  6.17453831E-03 -2.54450405E-03  0.00000000E+00 -2.07904341E-04
  1.26715649E-03  0.00000000E+00  1.27734757E-03 -2.49445045E-04  0.00000000E+00
 -1.24250594E-04  1.35048557E-04  0.00000000E+00  1.14396488E-04  2.02251172E-03
  0.00000000E+00 -3.09905463E-03 -2.86303824E-03  0.00000000E+00 -3.20449692E-03
  0.00000000E+00 -3.72967848E-04  0.00000000E+00  1.15734082E-03  1.69861784E-04
  0.00000000E+00  7.94961447E-04  2.51018487E-04  0.00000000E+00 -7.60603839E-04
  0.00000000E+00 -1.78297272E-04  0.00000000E+00 -2.05554725E-04 -6.55008947E-03
 -1.22317780E-02 -2.09367434E-02 -3.29226221E-02 -4.57681151E-02 -5.06408104E-02
 -1.89443324E-02 -6.02194769E-04 -6.52730422E-05 -1.39096287E-02  0.00000000E+00
  5.12921367E-03 -1.98462545E-02  0.00000000E+00  7.89923533E-04 -6.74047208E-03
  0.00000000E+00  2.27325741E-03  6.56585422E-05  0.00000000E+00  9.93848443E-04
 -1.03619108E-02  0.00000000E+00 -7.78817113E-03  4.18737247E-03  0.00000000E+00
  6.17453831E-03 -2.54450405E-03  0.00000000E+00  2.07904341E-04  1.26715649E-03
  0.00000000E+00  1.27734757E-03 -2.49445045E-04  0.00000000E+00  1.24250594E-04
  1.35048557E-04  0.00000000E+00  1.14396488E-04 -2.02251172E-03  0.00000000E+00
 -3.09905463E-03  2.86303824E-03  0.00000000E+00  3.20449692E-03  0.00000000E+00
 -3.72967848E-04  0.00000000E+00  1.15734082E-03 -1.69861784E-04  0.00000000E+00
  7.94961447E-04 -2.51018487E-04  0.00000000E+00  7.60603839E-04  0.00000000E+00
 -1.78297272E-04  0.00000000E+00 -2.05554725E-04
MO  5                     OCC NO =   2.00000000 ORB. ENERGY =  -0.27080261
  0.00000000E+00  0.00000000E+00  0.00000000E+00  0.00000000E+00  0.00000000E+00
  0.00000000E+00  0.00000000E+00  0.00000000E+00  0.00000000E+00  0.00000000E+00
  0.00000000E+00  0.00000000E+00  0.00000000E+00  0.00000000E+00  0.00000000E+00
  0.00000000E+00  0.00000000E+00  1.17094326E+00  1.43391639E+00  1.44203256E+00
  1.12321988E+00  0.00000000E+00  0.00000000E+00  0.00000000E+00  0.00000000E+00
  0.00000000E+00  1.12988676E-01  0.00000000E+00  0.00000000E+00  5.44274578E-01
  0.00000000E+00  0.00000000E+00  1.60737711E-01  0.00000000E+00  0.00000000E+00
  2.59237555E-02  0.00000000E+00  0.00000000E+00  1.09265530E-03  0.00000000E+00
  0.00000000E+00  0.00000000E+00  0.00000000E+00  0.00000000E+00  0.00000000E+00
  0.00000000E+00  0.00000000E+00  0.00000000E+00 -3.78800918E-02 -4.75323526E-02
  0.00000000E+00  0.00000000E+00  0.00000000E+00  0.00000000E+00  0.00000000E+00
  0.00000000E+00 -3.54149712E-02  0.00000000E+00  0.00000000E+00  0.00000000E+00
  0.00000000E+00  0.00000000E+00 -6.18721396E-03  0.00000000E+00  0.00000000E+00
  0.00000000E+00  0.00000000E+00  0.00000000E+00 -4.54662987E-04  0.00000000E+00
  0.00000000E+00  0.00000000E+00  2.69132824E-02  1.81015131E-02  0.00000000E+00
  0.00000000E+00  0.00000000E+00  0.00000000E+00  0.00000000E+00  0.00000000E+00
  0.00000000E+00  0.00000000E+00 -1.30597954E-02 -8.78384337E-03  0.00000000E+00
  0.00000000E+00  1.22661037E-02  8.25001700E-03  0.00000000E+00  0.00000000E+00
  0.00000000E+00  4.82233326E-03  0.00000000E+00  0.00000000E+00  0.00000000E+00
  0.00000000E+00 -2.31837077E-03  0.00000000E+00  2.13277906E-03  0.00000000E+00
  0.00000000E+00 -2.30934314E-04  0.00000000E+00  0.00000000E+00  0.00000000E+00
  0.00000000E+00  5.66046077E-05  0.00000000E+00  6.11204910E-05  0.00000000E+00
  0.00000000E+00  0.00000000E+00  0.00000000E+00  0.00000000E+00  0.00000000E+00
  0.00000000E+00  0.00000000E+00  0.00000000E+00 -3.06080523E-02 -2.96477627E-03
  0.00000000E+00  0.00000000E+00  0.00000000E+00  0.00000000E+00  0.00000000E+00
  0.00000000E+00  0.00000000E+00  0.00000000E+00  0.00000000E+00  0.00000000E+00
  0.00000000E+00  0.00000000E+00  9.54216790E-03  9.24279422E-04  0.00000000E+00
  0.00000000E+00  6.60516217E-04  6.39793340E-05  0.00000000E+00  0.00000000E+00
  0.00000000E+00  0.00000000E+00  0.00000000E+00  0.00000000E+00  2.38524300E-04
  0.00000000E+00  0.00000000E+00  0.00000000E+00  0.00000000E+00  0.00000000E+00
  0.00000000E+00 -3.50031455E-05  0.00000000E+00 -4.45049544E-05  0.00000000E+00
  0.00000000E+00  0.00000000E+00  0.00000000E+00  0.00000000E+00  0.00000000E+00
  0.00000000E+00  0.00000000E+00  0.00000000E+00  0.00000000E+00  0.00000000E+00
  1.83020145E-02  0.00000000E+00  0.00000000E+00  1.78855048E-02  0.00000000E+00
  0.00000000E+00  1.03437537E-02  0.00000000E+00  0.00000000E+00  1.60728672E-03
  0.00000000E+00  0.00000000E+00 -1.60111391E-02  0.00000000E+00  0.00000000E+00
  1.12959855E-02  0.00000000E+00  0.00000000E+00 -4.05027063E-03  0.00000000E+00
  0.00000000E+00  2.91302273E-03  0.00000000E+00  0.00000000E+00 -6.88536085E-04
  0.00000000E+00  0.00000000E+00  5.04225670E-04  0.00000000E+00  0.00000000E+00
  5.18902534E-03  0.00000000E+00  0.00000000E+00 -9.47228766E-03  0.00000000E+00
 -2.19366863E-03  0.00000000E+00  1.39198055E-03  0.00000000E+00  0.00000000E+00
  9.57768784E-05  0.00000000E+00  0.00000000E+00 -2.15437266E-04  0.00000000E+00
 -4.40988995E-05  0.00000000E+00  3.65198200E-05  0.00000000E+00  0.00000000E+00
  0.00000000E+00  0.00000000E+00  0.00000000E+00  0.00000000E+00  0.00000000E+00
  0.00000000E+00  0.00000000E+00  0.00000000E+00  0.00000000E+00  1.83020145E-02
  0.00000000E+00  0.00000000E+00  1.78855048E-02  0.00000000E+00  0.00000000E+00
  1.03437537E-02  0.00000000E+00  0.00000000E+00  1.60728672E-03  0.00000000E+00
  0.00000000E+00  1.60111391E-02  0.00000000E+00  0.00000000E+00  1.12959855E-02
  0.00000000E+00  0.00000000E+00  4.05027063E-03  0.00000000E+00  0.00000000E+00
  2.91302273E-03  0.00000000E+00  0.00000000E+00  6.88536085E-04  0.00000000E+00
  0.00000000E+00  5.04225670E-04  0.00000000E+00  0.00000000E+00  5.18902534E-03
  0.00000000E+00  0.00000000E+00  9.47228766E-03  0.00000000E+00 -2.19366863E-03
  0.00000000E+00  1.39198055E-03  0.00000000E+00  0.00000000E+00  9.57768784E-05
  0.00000000E+00  0.00000000E+00  2.15437266E-04  0.00000000E+00 -4.40988995E-05
  0.00000000E+00  3.65198200E-05  0.00000000E+00
END DATA
RHF      ENERGY =        0.0000000000   VIRIAL(-V/T)  =   0.00000000
