[Molden Format]
made by pyscf v[1.6]
[Atoms] (AU)
Ce   1   58     0.00000000000000     0.00000000000000     0.00000000000000
O   2   8     0.00000000000000     0.00000000000000     3.44000024837653
[GTO]
1 0
 s    1 1.00
            45191317.3                   1
 s    1 1.00
            8375256.96                   1
 s    1 1.00
            2008484.48                   1
 s    1 1.00
            553938.141                   1
 s    1 1.00
            170633.491                   1
 s    1 1.00
            57400.9238                   1
 s    1 1.00
            20779.2538                   1
 s    1 1.00
            7989.27326                   1
 s    1 1.00
            3225.20602                   1
 s    1 1.00
            1356.51771                   1
 s    1 1.00
            591.159645                   1
 s    1 1.00
            263.327832                   1
 s    1 1.00
            121.071763                   1
 s    1 1.00
            57.6253036                   1
 s    1 1.00
            27.9498725                   1
 s    1 1.00
             13.793097                   1
 s    1 1.00
            6.72376354                   1
 s    1 1.00
            3.22291959                   1
 s    1 1.00
            1.49142031                   1
 s    1 1.00
            0.59320372                   1
 s    1 1.00
            0.23792043                   1
 s    1 1.00
            0.08040999                   1
 s    1 1.00
            0.02876124                   1
 s    1 1.00
             0.0115045                   1
 s    1 1.00
            0.00460118                   1
 p    1 1.00
            3555062.42                   1
 p    1 1.00
            524129.966                   1
 p    1 1.00
            109980.949                   1
 p    1 1.00
            28617.5242                   1
 p    1 1.00
            8834.96472                   1
 p    1 1.00
            3139.55221                   1
 p    1 1.00
            1245.36053                   1
 p    1 1.00
            536.789665                   1
 p    1 1.00
            245.860493                   1
 p    1 1.00
            117.583984                   1
 p    1 1.00
            57.7776005                   1
 p    1 1.00
            28.0566294                   1
 p    1 1.00
            14.0640973                   1
 p    1 1.00
            6.94695462                   1
 p    1 1.00
             3.3973534                   1
 p    1 1.00
            1.62215185                   1
 p    1 1.00
            0.72992149                   1
 p    1 1.00
            0.31474648                   1
 p    1 1.00
             0.1219987                   1
 p    1 1.00
            0.04879948                   1
 p    1 1.00
            0.01951979                   1
 p    1 1.00
            0.00780792                   1
 d    1 1.00
            3225.20602                   1
 d    1 1.00
            1356.51771                   1
 d    1 1.00
            591.159645                   1
 d    1 1.00
            263.327832                   1
 d    1 1.00
            121.071763                   1
 d    1 1.00
            57.6253036                   1
 d    1 1.00
            27.9498725                   1
 d    1 1.00
             13.793097                   1
 d    1 1.00
            6.72376354                   1
 d    1 1.00
            3.22291959                   1
 d    1 1.00
            1.49142031                   1
 d    1 1.00
            0.59320372                   1
 d    1 1.00
            0.23792043                   1
 d    1 1.00
            0.08040999                   1
 d    1 1.00
              0.032164                   1
 f    1 1.00
            117.583984                   1
 f    1 1.00
            57.7776005                   1
 f    1 1.00
            28.0566294                   1
 f    1 1.00
            14.0640973                   1
 f    1 1.00
            6.94695462                   1
 f    1 1.00
             3.3973534                   1
 f    1 1.00
            1.62215185                   1
 f    1 1.00
            0.72992149                   1
 f    1 1.00
            0.31474648                   1
 f    1 1.00
            0.12589859                   1
 f    1 1.00
            0.05035943                   1
 g    1 1.00
              2.276372                   1
 g    1 1.00
              0.910549                   1
 g    1 1.00
             0.3642196                   1
 g    1 1.00
              0.145688                   1

2 0
 s    1 1.00
        12870.84508387                   1
 s    1 1.00
         1952.24777235                   1
 s    1 1.00
          454.02969464                   1
 s    1 1.00
          130.28372806                   1
 s    1 1.00
            42.7927326                   1
 s    1 1.00
           15.44629006                   1
 s    1 1.00
            5.87766148                   1
 s    1 1.00
            1.53426392                   1
 s    1 1.00
            0.81600697                   1
 s    1 1.00
             0.2601108                   1
 p    1 1.00
           63.35247031                   1
 p    1 1.00
           14.66997581                   1
 p    1 1.00
            4.46631945                   1
 p    1 1.00
            1.53127988                   1
 p    1 1.00
             0.5440053                   1
 p    1 1.00
             0.1799847                   1
 d    1 1.00
               2.39016                   1
 d    1 1.00
              0.681833                   1
 f    1 1.00
              1.510948                   1

[5d]
[9g]


[MO]
 Sym= A
 Ene=               0
 Spin= Alpha
 Occup=    0.00000
   1    -0.00035523086351989
   2    -0.0006652381890733
   3    -0.0016824863809137
   4    -0.0036754445199726
   5    -0.008253350349947
   6    -0.018314383669413
   7    -0.041096676584392
   8    -0.090806089094269
   9      -0.1892004008533
  10     -0.33306313180906
  11     -0.39815283969335
  12     -0.16376751942408
  13      0.26972432152237
  14      0.36550101898015
  15      0.10812157334319
  16     0.032367826883539
  17     0.012077581727944
  18    -0.0016001689008767
  19    -0.00060138184985229
  20    -3.7762080730667e-05
  21    -2.5309976492819e-06
  22    -8.5858982448795e-07
  23    3.6226530231609e-07
  24    -1.7476611431147e-07
  25    5.0512479374863e-08
  26    6.5373554250634e-10
  27    -4.3039402645455e-10
  28    -9.1964896348334e-07
  29    2.6003416987881e-09
  30    -1.7119634529862e-09
  31    -3.6577126186214e-06
  32    9.9392679209039e-09
  33    -6.5436274179423e-09
  34    -1.3979687260628e-05
  35    3.7083998635956e-08
  36    -2.4414673598442e-08
  37    -5.2146274560436e-05
  38    1.3658852949764e-07
  39    -8.9924651004813e-08
  40    -0.00019202457238052
  41    4.8209463198066e-07
  42    -3.1739303469463e-07
  43    -0.00067727001182969
  44    1.5635677686355e-06
  45    -1.0293963574927e-06
  46    -0.002194340851073
  47    4.3426629075698e-06
  48    -2.85906486384e-06
  49    -0.0060794241805433
  50    9.3312767851284e-06
  51    -6.1434415661003e-06
  52    -0.013020091240505
  53    1.3258061633834e-05
  54    -8.7287906837464e-06
  55    -0.018414394840605
  56    9.1068956381827e-06
  57    -5.995346815696e-06
  58    -0.013126218387525
  59    1.5150399135372e-07
  60    -9.7551596975128e-08
  61    -0.002773962754995
  62    -3.0213899491441e-06
  63    1.992324785924e-06
  64    0.00053795094024848
  65    -1.0497730401115e-06
  66    6.9219432885948e-07
  67    0.00032627531577882
  68    -6.6723510595291e-08
  69    4.3793001342392e-08
  70    0.00052716869854128
  71    -1.0386009318131e-09
  72    6.0305047718307e-10
  73    0.00024024681509428
  74    5.7857530110552e-10
  75    -3.9245880282746e-10
  76    2.2903294801434e-05
  77    3.8817035044302e-11
  78    -2.4385504417545e-11
  79    3.0253754594637e-06
  80    1.2580521164736e-11
  81    -9.1805071636311e-12
  82    4.5184588405192e-07
  83    -9.9884274287917e-12
  84    6.9931231672072e-12
  85    -1.2236703033676e-07
  86    4.2662052919417e-12
  87    -3.0064733638996e-12
  88    4.917504775124e-08
  89    -1.4272071058951e-12
  90    1.0022451258798e-12
  91    -1.4161546476363e-08
  92    -8.4171393822928e-07
  93    -1.6417284921802e-11
  94    1.0700638956202e-11
  95    -3.421311898439e-13
  96    -7.4606904216679e-15
  97    -2.9325457850761e-06
  98    -5.7559588648966e-11
  99    3.7507883015549e-11
 100    -1.1894644710587e-12
 101    -2.7768411499291e-14
 102    -1.5770555620835e-05
 103    -3.0996870331225e-10
 104    2.0200120829246e-10
 105    -6.4114601465668e-12
 106    -1.4687730443542e-13
 107    -6.8455798542337e-05
 108    -1.3315457789151e-09
 109    8.6772644718652e-10
 110    -2.7569310417622e-11
 111    -6.3332188077439e-13
 112    -0.00023637810229376
 113    -4.4396057221696e-09
 114    2.8921664280498e-09
 115    -9.4793223434736e-11
 116    -2.17768456772e-12
 117    -0.00058136872401555
 118    -1.1228432158238e-08
 119     7.31647046503e-09
 120    -2.3444109707435e-10
 121    -5.3841133122819e-12
 122    -0.00093413322010555
 123    -1.8637690448059e-08
 124    1.2148469767137e-08
 125    -3.7736043184361e-10
 126    -8.6673633948316e-12
 127    -0.00082173544905884
 128    -1.7516466317242e-08
 129    1.1429144709891e-08
 130    -3.2985829241391e-10
 131    -7.5746790970819e-12
 132    -0.00029155313811892
 133    -6.4643676757122e-09
 134    4.2327018878333e-09
 135    -1.1124479423066e-10
 136    -2.5542774842076e-12
 137    -4.7376492256437e-05
 138    -1.4546807947763e-09
 139    9.7598047649268e-10
 140    -7.9858448967695e-12
 141    -1.7976958388806e-13
 142    -2.0764149889591e-05
 143    -8.0341887469493e-10
 144    5.4160739983553e-10
 145    -1.153293034087e-12
 146    -2.5263208107465e-14
 147    -2.2933459141944e-06
 148    -6.4864182610952e-11
 149    4.4610755681882e-11
 150    2.0369184147004e-13
 151    5.4404577751819e-15
 152    -2.0320335061143e-07
 153    -7.1083132214297e-12
 154    4.5989356155547e-12
 155    -1.0710459690214e-13
 156    -2.9439562928409e-15
 157    -1.9761552588725e-08
 158    5.0638310566749e-12
 159    -3.3374086557892e-12
 160    4.5895613434283e-14
 161    1.3353230990935e-15
 162    3.1257397111325e-09
 163    -1.4105754777884e-12
 164    9.1942908882757e-13
 165    -1.7528093610633e-14
 166    -6.348971145135e-16
 167    5.9329793733361e-07
 168    -8.2711891170248e-11
 169    5.4439982356817e-11
 170    -5.3907584248358e-15
 171    1.3535613688463e-16
 172    5.1443474389494e-16
 173    -2.6380817736132e-16
 174    6.5822143829597e-08
 175    -1.3369970235727e-11
 176    8.7597341967792e-12
 177    -1.9164484223039e-14
 178    -1.3825649679979e-15
 179    -3.2955842900497e-16
 180    3.7506626318367e-16
 181    -6.0225781951988e-07
 182    4.3483552188975e-11
 183    -2.8806507420661e-11
 184    -6.5989366494389e-14
 185    -1.3507966861091e-15
 186    -9.949275616001e-16
 187    2.3248691568298e-16
 188    -4.6339635940248e-07
 189    5.0706847427606e-10
 190    -3.3438004164919e-10
 191    -1.4519858452476e-13
 192    -2.2074405875634e-15
 193    5.6402829854368e-17
 194    1.5266016362943e-16
 195    -4.4896091520576e-07
 196    1.8879551845048e-10
 197    -1.243948542687e-10
 198    -5.4288412717049e-14
 199    -9.7474356894925e-16
 200    9.7710797073296e-16
 201    3.8880773065992e-16
 202    -9.9906369084564e-07
 203    5.7967032413296e-12
 204    -3.6985105711217e-12
 205    6.7890669875527e-15
 206    7.4030532778301e-16
 207    1.1129818257693e-15
 208    5.0561505753774e-16
 209    -4.5673802714137e-07
 210    -9.3653599358973e-12
 211    6.2245688892401e-12
 212    -2.5748410297912e-15
 213    -7.5961363813486e-17
 214    -2.5374664349049e-16
 215    -3.8334293248053e-17
 216    -6.310652386929e-08
 217    -9.0155224266899e-12
 218    5.9093197454689e-12
 219    3.5864515876207e-15
 220    1.5396860887388e-16
 221    1.8748371995063e-16
 222    1.4676069587159e-16
 223    3.5933361865596e-08
 224    -6.9317908408612e-12
 225    4.6309407405245e-12
 226    -6.9712919568201e-17
 227    2.8839224961158e-18
 228    -2.5559297098176e-17
 229    -1.4565136111584e-17
 230    -5.3456063412893e-08
 231    8.8043251477399e-13
 232     -6.3464911511e-13
 233    2.7000518912128e-16
 234    -3.7484675108972e-17
 235    2.8361313484164e-18
 236    -1.8232616813888e-18
 237    8.4320937619098e-09
 238    5.5340230509622e-13
 239    -3.6679487378482e-13
 240    -3.7824707968125e-17
 241    5.8246838987387e-17
 242    7.1557858503692e-18
 243    8.0045594455458e-18
 244    1.2115477575826e-07
 245    -7.2556481388635e-11
 246    4.7758322078943e-11
 247    1.6985876274858e-14
 248    1.7077067650067e-16
 249    -4.6332577625445e-16
 250    -6.9898904967948e-17
 251    1.2567426012267e-16
 252    -6.632779286901e-18
 253    -9.1886991344618e-08
 254    2.3515426043563e-11
 255    -1.5490591513109e-11
 256    -1.0248144101971e-14
 257    -1.4028429946323e-16
 258    6.0097113683241e-16
 259    3.2014868194485e-16
 260    -4.4613550085261e-18
 261    3.4282862615977e-16
 262    -2.0945309245127e-09
 263    -1.987144916173e-11
 264    1.3145843885661e-11
 265    5.3652327190355e-15
 266    1.2108908234156e-16
 267    -8.2677747544404e-17
 268    2.1421296546243e-17
 269    3.3458690495758e-17
 270    4.3493424365732e-17
 271    -2.877687900962e-08
 272    5.769314175619e-12
 273    -3.8393503583475e-12
 274    -2.0747199787301e-15
 275    -3.5447545188123e-17
 276    3.675377525154e-17
 277    -1.701507685405e-18
 278    -1.7845809103639e-17
 279    -1.1529691376593e-17
 280    7.0484020093293e-10
 281    1.6823369689137e-08
 282    7.9991813932365e-09
 283    2.430688820477e-07
 284    3.2256883482749e-07
 285    8.7855803126763e-07
 286    4.9991925666107e-07
 287    1.8335087897436e-07
 288    -1.4540043994265e-07
 289    1.8181485230095e-08
 290    -3.6774507258257e-13
 291    2.4158583086902e-13
 292    1.7960650423574e-08
 293    1.5549235662778e-12
 294    -1.020789473609e-12
 295    -2.619150111121e-08
 296    -4.2375342239197e-13
 297    2.6716462988635e-13
 298    2.0574143455605e-08
 299    2.4849368263237e-12
 300    -1.6019227747811e-12
 301    -1.9745528776742e-08
 302    6.8310312087891e-12
 303    -4.5747519596066e-12
 304    7.035794510712e-08
 305    -7.5525224706626e-12
 306    5.0810697732844e-12
 307    2.1970532084905e-08
 308    -7.6333678574592e-09
 309    -1.5178401130233e-12
 310    9.8917377249579e-13
 311    -1.6661472528392e-16
 312    -4.4672367793974e-18
 313    -3.4571471689302e-08
 314    -4.3671734493796e-12
 315    2.9341023636406e-12
 316    1.9621263446932e-15
 317    5.0138658686362e-17
 318    -8.8179658123339e-09
 319    -9.1089521475003e-13
 320    5.7750077585401e-13
 321    -3.779143116491e-16
 322    1.4298779298066e-18
 323    -2.3597194533667e-17
 324    4.4325545843465e-19
 Sym= A
 Ene=               1
 Spin= Alpha
 Occup=    0.00000
   1    -0.00010300272049776
   2    -0.00019277308903153
   3    -0.00048690292991485
   4    -0.0010604960292538
   5    -0.0023682365965185
   6    -0.0052059747050883
   7    -0.011480934536218
   8    -0.024566980861939
   9    -0.047665209250498
  10    -0.070993675608845
  11    -0.054514702842778
  12    -0.037441137093207
  13     -0.20354643157184
  14     -0.25025657041085
  15    -0.089422901448871
  16     -0.10770641227762
  17    -0.040276444768957
  18    -0.00049295487601568
  19    0.00012241442731472
  20    5.3872937526532e-05
  21    -7.9745783826253e-06
  22    2.5734338467768e-06
  23    -2.7605317019816e-06
  24    1.1161636459022e-06
  25    -3.4380994534325e-07
  26    -1.1241593052934e-09
  27    7.8463543740793e-10
  28    -1.4124395591658e-05
  29    -4.4715316017791e-09
  30    3.1210177537466e-09
  31    -5.6182694968918e-05
  32    -1.7091501927383e-08
  33    1.1929445303658e-08
  34    -0.00021474912779396
  35    -6.3769414681538e-08
  36    4.4509467618694e-08
  37    -0.00080126079204419
  38    -2.3487679235161e-07
  39    1.639381398586e-07
  40    -0.0029513068224087
  41    -8.2900704381832e-07
  42    5.7862612629334e-07
  43    -0.010417514631199
  44    -2.688701905114e-06
  45    1.8766457325536e-06
  46    -0.033791010828467
  47    -7.467619674111e-06
  48    5.2122046007689e-06
  49     -0.09387677351723
  50    -1.60460195212e-05
  51    1.1199690556966e-05
  52     -0.20179583863948
  53    -2.2798509810068e-05
  54    1.5912723419806e-05
  55     -0.28685009125013
  56    -1.5660118154227e-05
  57    1.0930473955712e-05
  58     -0.19621601833435
  59    -2.6018564559821e-07
  60    1.8239260032365e-07
  61    0.0011290563729434
  62    5.1960422101368e-06
  63    -3.6255759812406e-06
  64     0.071557933016514
  65    1.8053793597621e-06
  66    -1.2597151230109e-06
  67     0.024756519535602
  68    1.1481199591927e-07
  69    -8.014978883752e-08
  70    0.0011174821147119
  71    1.8222603606462e-09
  72    -1.2828421233079e-09
  73    -0.0001843450340947
  74    -9.9359834987734e-10
  75    6.9050392724709e-10
  76    -3.3934623851267e-05
  77    -6.5702815188364e-11
  78    4.6783474035278e-11
  79    2.3052633526705e-06
  80    -2.1931979974744e-11
  81    1.4884382548258e-11
  82    -1.0194497413268e-06
  83    1.7316696127264e-11
  84    -1.1892876221334e-11
  85    1.2603963402863e-06
  86    -7.3928327737192e-12
  87    5.0720996445548e-12
  88    -3.5623386708532e-07
  89    2.4696928733361e-12
  90    -1.7062114460719e-12
  91    1.2622800047949e-07
  92     1.73771097904e-06
  93    2.7299860270487e-11
  94    -1.9639893193957e-11
  95    2.0487745303444e-14
  96    -2.2809157012284e-14
  97    6.0798730803681e-06
  98    9.5724093001042e-11
  99    -6.8858739136432e-11
 100    7.0579284913265e-14
 101    -7.992547805004e-14
 102    3.2607029738471e-05
 103    5.1549671970997e-10
 104    -3.7080920451472e-10
 105    3.8610267334716e-13
 106    -4.308763667697e-13
 107    0.00014058879287239
 108    2.2143390567774e-09
 109    -1.5929084741373e-09
 110    1.6366980248322e-12
 111    -1.8491135297474e-12
 112    0.00047944459453165
 113    7.3752195469951e-09
 114    -5.3104872750319e-09
 115    5.7056353063153e-12
 116    -6.372303986908e-12
 117    0.0011946394252555
 118    1.8667504458702e-08
 119    -1.343204754533e-08
 120    1.4021093750735e-11
 121    -1.5741202238555e-11
 122    0.0019413927439464
 123    3.1017788395909e-08
 124    -2.2297542299268e-08
 125    2.2639205207721e-11
 126    -2.5354151750692e-11
 127    0.0017484805482131
 128    2.9218978580099e-08
 129    -2.0959635303092e-08
 130    1.9724619941803e-11
 131    -2.2152660368383e-11
 132    0.00062670516058368
 133    1.0807265624148e-08
 134    -7.7324482341712e-09
 135    6.610305095359e-12
 136    -7.5144169115729e-12
 137    0.0001008970110187
 138    2.4711656271746e-09
 139    -1.7360990779833e-09
 140    3.3948280825902e-13
 141    -5.882724575778e-13
 142    4.8416054812015e-05
 143    1.3731751431828e-09
 144    -9.588630634879e-10
 145    -9.5728915809507e-16
 146    -1.1343551740095e-13
 147    5.0945376514565e-06
 148    1.113323735119e-10
 149    -7.7147935894931e-11
 150    -2.6487762536709e-14
 151    8.2841565626778e-15
 152    8.2607929535682e-08
 153    1.1963429057845e-11
 154    -8.5414970564122e-12
 155    8.7167288717463e-15
 156    -7.0928026885635e-15
 157    -1.6606914489017e-07
 158    -8.660689850848e-12
 159    6.0781674966036e-12
 160    -3.2321486453063e-15
 161    3.6357519921381e-15
 162     1.22920643815e-07
 163    2.3961473222972e-12
 164    -1.6939313647109e-12
 165    9.4762951582336e-16
 166    -1.9959891812749e-15
 167    7.7077990285998e-07
 168    1.4221348378022e-10
 169    -9.927465575547e-11
 170    4.274710935722e-16
 171    -5.6441337989646e-16
 172    -7.9239783894656e-16
 173    7.9240168196591e-16
 174    -8.072344140249e-07
 175    2.2914814009692e-11
 176    -1.6050168650902e-11
 177    7.0555577526204e-16
 178    -8.7147412710952e-16
 179    -1.3207780281787e-15
 180    -1.3233254360462e-15
 181    -1.9205462079655e-06
 182    -7.5058423825048e-11
 183    5.2164629804676e-11
 184    3.3131643858335e-15
 185    -6.0418980302279e-15
 186    -2.0840323547107e-15
 187    2.2567113041599e-16
 188    -1.6790534300766e-05
 189    -8.7255084926724e-10
 190    6.0850384842453e-10
 191    1.0851989866822e-14
 192    -1.6608633904633e-14
 193    -2.2650463519062e-15
 194    -2.5089643587901e-15
 195    -1.5845733454281e-06
 196    -3.2498513066488e-10
 197    2.2663836543109e-10
 198    3.628431522838e-15
 199    -3.4568893020688e-15
 200    9.6529300093202e-16
 201    3.8955296858802e-16
 202    2.724036661604e-06
 203    -1.0031931083739e-11
 204    6.9915826673864e-12
 205    -9.9064669483876e-16
 206    1.5956658752654e-16
 207    1.919112171243e-16
 208    4.4110506880884e-16
 209    -1.0187083285501e-06
 210    1.6062819174216e-11
 211    -1.1220675576213e-11
 212    -8.3575328792754e-16
 213    -8.6061710355696e-17
 214    -1.1692291836691e-15
 215    -5.8555199439231e-16
 216    -7.1952605281937e-07
 217    1.5499934555607e-11
 218    -1.0825223926065e-11
 219    7.1641311269655e-16
 220    4.3690849592608e-16
 221    8.3797357051123e-16
 222    7.9189346904682e-16
 223    -6.72914659305e-07
 224    1.1935670177118e-11
 225    -8.3102824422645e-12
 226    -5.6286414367809e-16
 227    3.4549650302854e-16
 228    -2.8185902522532e-16
 229    -4.7517943728815e-17
 230    -1.1221914536265e-07
 231    -1.5663997677087e-12
 232    1.0489584564775e-12
 233    5.3085103380405e-16
 234    -4.8994320072711e-16
 235    2.8088022218202e-16
 236    -3.2038582603501e-17
 237    2.9669881342393e-08
 238    -9.5479420633181e-13
 239    6.6378511846665e-13
 240    -5.7154805207771e-17
 241    3.1658018042748e-16
 242    1.7355405732611e-18
 243    4.4676191172613e-17
 244    4.201908339386e-07
 245    1.2491494624621e-10
 246    -8.7119928843038e-11
 247    5.6558851847823e-17
 248    -1.2323397165753e-15
 249    -2.5810701345187e-15
 250    -2.101194382153e-15
 251    -3.7585912002721e-16
 252    -1.606812452328e-15
 253    3.1437841882543e-07
 254    -4.0507346632177e-11
 255    2.8237738996168e-11
 256    3.6312009468366e-16
 257    2.6111129669433e-16
 258    4.3186108415734e-15
 259    3.2910610088326e-15
 260    1.1162139319028e-15
 261    4.2553908169826e-15
 262    -1.1679297914124e-08
 263    3.4224931529722e-11
 264    -2.3846043100712e-11
 265    -1.9982572544949e-16
 266    -1.9565628155762e-16
 267    -7.6755532249412e-16
 268    -4.6817977571308e-16
 269    3.0254873502011e-19
 270    -7.6720609918784e-16
 271    -4.3946534308644e-09
 272    -9.9702899118056e-12
 273    6.9205057820265e-12
 274    1.9137910454254e-16
 275    1.1859731132154e-16
 276    -1.6511978852475e-17
 277    2.0653152575963e-16
 278    1.3131744511998e-17
 279    2.0701382934224e-16
 280    3.4050434549347e-10
 281    9.5891348116291e-09
 282    -2.5605479398404e-09
 283    1.452175070266e-07
 284    1.2740106547966e-07
 285    4.7560398355087e-07
 286    2.5092701783769e-07
 287    6.4218191125564e-08
 288    2.0055333993043e-07
 289    3.4622781639734e-08
 290    6.3235682093446e-13
 291    -4.418745335005e-13
 292    3.6458816874922e-08
 293    -2.674789291059e-12
 294    1.8680085605315e-12
 295    -8.1451749096369e-08
 296    7.2548790930539e-13
 297    -5.1181070821632e-13
 298    1.1234989897917e-07
 299    -4.2647617268738e-12
 300    2.9894742691313e-12
 301    -1.6194432500102e-07
 302    -1.1776009778317e-11
 303    8.189219856077e-12
 304    1.7943289871199e-07
 305    1.3087713287068e-11
 306    -9.0495381426854e-12
 307    -1.6325067763109e-07
 308    1.9806270364208e-08
 309    2.6094456519042e-12
 310    -1.8238592934836e-12
 311    2.6448549693835e-17
 312    1.3542278407191e-16
 313    -1.117632295455e-07
 314    7.5270623817728e-12
 315    -5.2334767734281e-12
 316    -3.3760136249196e-16
 317    1.3431390788139e-16
 318    8.8165584663092e-08
 319    1.5500188941139e-12
 320    -1.0966660675141e-12
 321    1.2476992767885e-17
 322    8.7834733593553e-18
 323    -5.2709347514801e-16
 324    1.6926303073849e-17
 Sym= A
 Ene=               2
 Spin= Alpha
 Occup=    0.00000
   1    1.1608889596631e-09
   2    2.1751588423755e-09
   3    5.507663258841e-09
   4    1.2062639229231e-08
   5    2.7216042942376e-08
   6    6.0875504917382e-08
   7    1.3857343331879e-07
   8    3.1404204324837e-07
   9    6.888578736306e-07
  10    1.3392594914859e-06
  11    1.8984827362803e-06
  12    6.3358902237321e-07
  13    -3.6381972988116e-06
  14    -4.6667800808604e-06
  15    -1.5451778959991e-06
  16    -1.3167184148273e-06
  17    -4.9373244720508e-07
  18    1.2016135590541e-08
  19    7.8989482006794e-09
  20    8.8242874748803e-10
  21    -3.5579282270803e-11
  22    2.9933438706764e-11
  23    -2.5221844364094e-11
  24    9.8555037461245e-12
  25    -2.8826860212567e-12
  26    1.3922416422447e-05
  27    1.5087609852498e-05
  28    -1.0937461457475e-10
  29    5.5378740124773e-05
  30    6.0013491896033e-05
  31    -4.3506430071629e-10
  32    0.00021167376875228
  33    0.00022938914784299
  34    -1.6629772240014e-09
  35    0.00078976746583012
  36    0.00085586460262983
  37    -6.2049594605321e-09
  38    0.0029088874795541
  39    0.0031523377888056
  40    -2.2855455959907e-08
  41     0.010267036100808
  42     0.011126303821958
  43    -8.0680783650526e-08
  44     0.033298876997401
  45     0.036085723163078
  46    -2.6172982005734e-07
  47     0.092484570329117
  48      0.10022477943522
  49    -7.2730793855028e-07
  50       0.1987259654044
  51      0.21535771844036
  52    -1.563943840806e-06
  53       0.2823540630918
  54      0.30598481038819
  55    -2.2241154085509e-06
  56      0.19394572674277
  57      0.21017741189276
  58    -1.5155935025813e-06
  59    0.0032167457911328
  60    0.0034859575152005
  61    3.9713218397516e-08
  62    -0.064359765302075
  63    -0.069746161630255
  64    5.9888906795543e-07
  65    -0.022361562466974
  66    -0.024233045860117
  67    2.0564773123681e-07
  68    -0.001420660949495
  69    -0.0015395584224268
  70    3.6322151084602e-09
  71    -2.1897374876168e-05
  72    -2.3729816011612e-05
  73    -4.2136673372606e-09
  74    1.2364235728296e-05
  75    1.3399045625177e-05
  76    -5.4065717782757e-10
  77    8.1888573762991e-07
  78    8.8741875819826e-07
  79    -2.0258511677489e-11
  80    2.7234891867155e-07
  81    2.951438051362e-07
  82    -1.4339939815306e-11
  83    -2.1478464260797e-07
  84    -2.327610992287e-07
  85    1.2777469188272e-11
  86    9.1806193807212e-08
  87    9.9489999553478e-08
  88    -3.9591501318365e-12
  89    -3.0703304837435e-08
  90    -3.3273023735284e-08
  91    1.364303514964e-12
  92    2.4405192542698e-11
  93    -3.4615486841228e-07
  94    -3.7512651402181e-07
  95    -8.5325443572949e-14
  96    2.1087044080157e-13
  97    8.5240840152234e-11
  98    -1.2135798134152e-06
  99    -1.3151510838099e-06
 100    -2.9426564774097e-13
 101    7.3381683459758e-13
 102    4.5776929561727e-10
 103    -6.5355185470963e-06
 104    -7.08251263589e-06
 105    -1.5892738780299e-12
 106    3.9568466394016e-12
 107    1.9754694993372e-09
 108    -2.8074471623213e-05
 109    -3.042418112327e-05
 110    -6.8390684389148e-12
 111    1.7010271263148e-11
 112    6.766678630934e-09
 113    -9.3575544865979e-05
 114    -0.00010140741632099
 115    -2.3516888040227e-11
 116    5.8487194617748e-11
 117    1.6784248270092e-08
 118    -0.00023672135642566
 119    -0.00025653389769462
 120    -5.8157841595794e-11
 121    1.4466205463825e-10
 122    2.7157795640494e-08
 123    -0.00039304789839148
 124    -0.000425944242697
 125    -9.3578784947071e-11
 126    2.3277478593233e-10
 127    2.4246497782233e-08
 128    -0.00036966958020238
 129    -0.0004006091767764
 130    -8.1610334138225e-11
 131    2.0353732055393e-10
 132    8.6387983774487e-09
 133    -0.00013656511475421
 134    -0.00014799495656416
 135    -2.8002980823397e-11
 136    6.8606772687157e-11
 137    1.3682758886272e-09
 138    -3.0956978436959e-05
 139    -3.3547906257069e-05
 140    -2.8572275511112e-12
 141    5.0004759724596e-12
 142    6.3115223103545e-10
 143    -1.7135478742659e-05
 144    -1.8569614588441e-05
 145    -5.9144398606454e-13
 146    7.6276098111745e-13
 147    6.7208565924876e-11
 148    -1.3886352484143e-06
 149    -1.5048563410836e-06
 150    -1.3841660136322e-14
 151    -9.3606955459971e-14
 152    1.1515586138792e-12
 153    -1.5018442453224e-07
 154    -1.6275393252518e-07
 155    -1.8689766472061e-14
 156    4.4265428589397e-14
 157    -4.9470046369807e-13
 158    1.0769423356813e-07
 159    1.1670747773346e-07
 160    1.7864943986312e-15
 161    -2.37358214172e-14
 162    7.8916662825729e-13
 163    -2.9904689677663e-08
 164    -3.2407511728612e-08
 165    1.4892667287787e-15
 166    1.2408801643728e-14
 167     2.10841286089e-12
 168    -1.7613646161387e-06
 169    -1.9087765689267e-06
 170    6.3775929768941e-15
 171    3.1772943946152e-16
 172    6.2189480280985e-15
 173    -7.5268055141926e-16
 174    -6.2407708374361e-12
 175    -2.8430027357524e-07
 176    -3.0809394349975e-07
 177    -8.4116263433797e-15
 178    1.0896254569041e-14
 179    -5.8541411652237e-16
 180    -2.5835593255263e-15
 181    -9.4505175117311e-12
 182    9.2767671444134e-07
 183     1.00531568064e-06
 184    5.2672608318663e-15
 185    4.9370236270406e-14
 186    2.9365802815862e-14
 187    1.4453652121967e-14
 188    -1.331753734811e-10
 189    1.0803077938023e-05
 190    1.1707208100468e-05
 191    -3.1197467378461e-14
 192    1.0368554589375e-13
 193     1.03661023323e-14
 194    -1.2499962070546e-15
 195    -7.3883307874394e-12
 196    4.0222014436571e-06
 197    4.3588267764944e-06
 198    -1.0158903532529e-13
 199    -9.873407263704e-16
 200    -1.1082883606055e-13
 201    -2.7995794894843e-14
 202    3.4820025050242e-11
 203    1.2316312753317e-07
 204    1.3347056129823e-07
 205    -4.6593038756956e-14
 206    7.8946843996433e-16
 207    -5.1799340212027e-14