[Molden Format]
made by pyscf v[1.6]
[Atoms] (AU)
Pb   1   82     0.00000000000000     0.00000000000000     0.00000000000000
Po   2   84     0.00000000000000     0.00000000000000     6.22664758044188
[GTO]
1 0
 s    1 1.00
            53286308.1                   1
 s    1 1.00
            12563091.6                   1
 s    1 1.00
            3649632.71                   1
 s    1 1.00
            1155667.46                   1
 s    1 1.00
            393662.372                   1
 s    1 1.00
            141880.712                   1
 s    1 1.00
            53715.8205                   1
 s    1 1.00
            21155.9239                   1
 s    1 1.00
            8592.02151                   1
 s    1 1.00
            3587.69911                   1
 s    1 1.00
            1543.12835                   1
 s    1 1.00
            682.751108                   1
 s    1 1.00
            310.809922                   1
 s    1 1.00
            147.336687                   1
 s    1 1.00
            72.0274889                   1
 s    1 1.00
            36.0688738                   1
 s    1 1.00
             17.914637                   1
 s    1 1.00
            8.78523935                   1
 s    1 1.00
            4.25459609                   1
 s    1 1.00
            1.87416029                   1
 s    1 1.00
            0.78526814                   1
 s    1 1.00
            0.29369027                   1
 s    1 1.00
            0.10014454                   1
 s    1 1.00
            0.04005781                   1
 s    1 1.00
            0.01602312                   1
 p    1 1.00
            18424232.6                   1
 p    1 1.00
            3401762.55                   1
 p    1 1.00
            789635.475                   1
 p    1 1.00
            211624.228                   1
 p    1 1.00
            63404.1081                   1
 p    1 1.00
             20924.975                   1
 p    1 1.00
            7562.84898                   1
 p    1 1.00
            2974.21901                   1
 p    1 1.00
            1257.78781                   1
 p    1 1.00
            563.372044                   1
 p    1 1.00
            263.909129                   1
 p    1 1.00
            127.784575                   1
 p    1 1.00
            61.9403223                   1
 p    1 1.00
            31.2051312                   1
 p    1 1.00
            15.5810598                   1
 p    1 1.00
            7.65220691                   1
 p    1 1.00
            3.69552968                   1
 p    1 1.00
            1.63409775                   1
 p    1 1.00
            0.69245606                   1
 p    1 1.00
            0.18951736                   1
 p    1 1.00
            0.05915108                   1
 p    1 1.00
            0.02366043                   1
 d    1 1.00
            8592.02151                   1
 d    1 1.00
            3587.69911                   1
 d    1 1.00
            1543.12835                   1
 d    1 1.00
            682.751108                   1
 d    1 1.00
            310.809922                   1
 d    1 1.00
            147.336687                   1
 d    1 1.00
            72.0274889                   1
 d    1 1.00
            36.0688738                   1
 d    1 1.00
             17.914637                   1
 d    1 1.00
            8.78523935                   1
 d    1 1.00
            4.25459609                   1
 d    1 1.00
            1.87416029                   1
 d    1 1.00
            0.78526814                   1
 d    1 1.00
            0.29369027                   1
 d    1 1.00
             0.1174761                   1
 d    1 1.00
            0.04699044                   1
 f    1 1.00
            563.372044                   1
 f    1 1.00
            263.909129                   1
 f    1 1.00
            127.784575                   1
 f    1 1.00
            61.9403223                   1
 f    1 1.00
            31.2051312                   1
 f    1 1.00
            15.5810598                   1
 f    1 1.00
            7.65220691                   1
 f    1 1.00
            3.69552968                   1
 f    1 1.00
            1.63409775                   1
 f    1 1.00
             0.6536391                   1
 f    1 1.00
            0.26145564                   1
 f    1 1.00
            0.10458226                   1
 g    1 1.00
              1.536795                   1
 g    1 1.00
              0.614718                   1
 g    1 1.00
              0.245887                   1
 g    1 1.00
              0.098355                   1

2 0
 s    1 1.00
            54498862.1                   1
 s    1 1.00
            13096120.9                   1
 s    1 1.00
            3878386.94                   1
 s    1 1.00
            1248126.68                   1
 s    1 1.00
             430885.75                   1
 s    1 1.00
            156915.928                   1
 s    1 1.00
            59878.6489                   1
 s    1 1.00
              23713.98                   1
 s    1 1.00
            9664.09077                   1
 s    1 1.00
             4042.6813                   1
 s    1 1.00
            1740.53627                   1
 s    1 1.00
            771.429054                   1
 s    1 1.00
             350.90462                   1
 s    1 1.00
            166.226015                   1
 s    1 1.00
            81.2310139                   1
 s    1 1.00
             40.699368                   1
 s    1 1.00
            20.3490525                   1
 s    1 1.00
             10.048661                   1
 s    1 1.00
             4.9195767                   1
 s    1 1.00
            2.21311774                   1
 s    1 1.00
            0.96083709                   1
 s    1 1.00
            0.37253482                   1
 s    1 1.00
            0.13185443                   1
 s    1 1.00
            0.05274177                   1
 s    1 1.00
             0.0210967                   1
 p    1 1.00
            20045996.7                   1
 p    1 1.00
             3786356.9                   1
 p    1 1.00
            890330.888                   1
 p    1 1.00
             240434.87                   1
 p    1 1.00
            72292.2646                   1
 p    1 1.00
            23852.7825                   1
 p    1 1.00
            8590.61706                   1
 p    1 1.00
            3360.33711                   1
 p    1 1.00
            1413.27346                   1
 p    1 1.00
            630.180015                   1
 p    1 1.00
            294.176966                   1
 p    1 1.00
            142.106857                   1
 p    1 1.00
            68.8791995                   1
 p    1 1.00
            34.7394672                   1
 p    1 1.00
            17.3925236                   1
 p    1 1.00
            8.58678154                   1
 p    1 1.00
            4.18303674                   1
 p    1 1.00
            1.88215634                   1
 p    1 1.00
            0.82550127                   1
 p    1 1.00
            0.25531368                   1
 p    1 1.00
            0.08323531                   1
 p    1 1.00
            0.03329412                   1
 d    1 1.00
            9664.09077                   1
 d    1 1.00
             4042.6813                   1
 d    1 1.00
            1740.53627                   1
 d    1 1.00
            771.429054                   1
 d    1 1.00
             350.90462                   1
 d    1 1.00
            166.226015                   1
 d    1 1.00
            81.2310139                   1
 d    1 1.00
             40.699368                   1
 d    1 1.00
            20.3490525                   1
 d    1 1.00
             10.048661                   1
 d    1 1.00
             4.9195767                   1
 d    1 1.00
            2.21311774                   1
 d    1 1.00
            0.96083709                   1
 d    1 1.00
            0.37253482                   1
 d    1 1.00
            0.14901392                   1
 d    1 1.00
            0.05960556                   1
 f    1 1.00
            630.180015                   1
 f    1 1.00
            294.176966                   1
 f    1 1.00
            142.106857                   1
 f    1 1.00
            68.8791995                   1
 f    1 1.00
            34.7394672                   1
 f    1 1.00
            17.3925236                   1
 f    1 1.00
            8.58678154                   1
 f    1 1.00
            4.18303674                   1
 f    1 1.00
            1.88215634                   1
 f    1 1.00
            0.75286253                   1
 f    1 1.00
            0.30114501                   1
 f    1 1.00
              0.120458                   1
 g    1 1.00
              1.767416                   1
 g    1 1.00
             0.7069664                   1
 g    1 1.00
             0.2827865                   1
 g    1 1.00
             0.1131146                   1

[5d]
[9g]


[MO]
 Sym= A
 Ene=               0
 Spin= Alpha
 Occup=   -0.00000
   1    6.8054841967796e-07
   2    7.3731079687389e-07
   3    1.8835787216057e-06
   4    3.0765775957054e-06
   5    5.9512190098238e-06
   6    1.0215779388983e-05
   7    1.768399673671e-05
   8    2.702469847156e-05
   9    2.9193881954424e-05
  10    -1.9056179715038e-05
  11    -0.00016510403191466
  12    6.9762539982209e-05
  13    0.0023533722019313
  14    0.0050345015829349
  15    0.0002561031956497
  16    -0.0080186174887268
  17    -0.0033257089887404
  18    0.0027668662838611
  19    0.0012379307659317
  20    -0.00011190005875374
  21    -5.227001029299e-05
  22    -1.3266839350678e-06
  23    -9.9644713591178e-08
  24    -2.0979900137416e-08
  25    -2.7301939801755e-10
  26    -1.5111462869915e-05
  27    -1.9969044901999e-05
  28    -1.7645577318264e-06
  29    -4.2661310228622e-05
  30    -5.6349518770239e-05
  31    -4.9862279629141e-06
  32    -0.00013505035237267
  33    -0.00017828454736161
  34    -1.5802736071843e-05
  35    -0.00039844758786472
  36    -0.00052564807182976
  37    -4.6689864256092e-05
  38    -0.0011905243920701
  39    -0.0015685879503191
  40    -0.00013987593980015
  41    -0.003585987138265
  42    -0.0047170262927088
  43    -0.00042275501062023
  44    -0.010822805426155
  45     -0.01418713501159
  46    -0.0012850438418263
  47    -0.031608211735956
  48    -0.041217836729887
  49    -0.0037930569333533
  50    -0.083979077091516
  51     -0.10833547185262
  52    -0.010295671377771
  53     -0.18136400641824
  54     -0.23045998634093
  55    -0.022884988801673
  56     -0.26141618270231
  57     -0.32783331833191
  58    -0.033792870854871
  59     -0.13193569254987
  60     -0.21389460240857
  61    -0.0080714099092959
  62      0.19891870444645
  63      0.02626156690663
  64     0.067099428033394
  65      0.27154374269998
  66     0.087086521391342
  67     0.082086007891721
  68      0.07793512887522
  69     0.034119307615284
  70     0.021974291547458
  71     0.011071865899631
  72     0.019915169666168
  73    0.00049366814285472
  74    0.0025854640282041
  75    0.0056851802555705
  76    -6.1066561952051e-05
  77    9.7037465470044e-05
  78    0.00026797370341892
  79    -5.9812645681765e-06
  80    3.0684196519126e-05
  81    4.1065509801829e-05
  82    6.7743124898216e-06
  83    6.4276709068628e-07
  84    6.2819638043006e-07
  85    2.1383468323531e-07
  86    -2.31967323946e-08
  87    -7.0045742265137e-08
  88    2.3193690971014e-08
  89    -6.0861722352746e-09
  90    1.7436341397643e-08
  91    -7.6932140730221e-09
  92    1.8043894434734e-06
  93    -2.5351875228866e-06
  94    -9.4136673334075e-06
  95    4.0280303935122e-07
  96    -2.6990966080333e-08
  97    5.4212899398414e-06
  98    -7.6144568417114e-06
  99    -2.8277429060551e-05
 100    1.210104960283e-06
 101    -8.1085504577145e-08
 102    2.7403116566286e-05
 103    -3.852257441901e-05
 104    -0.0001430061724206
 105    6.1183456928291e-06
 106    -4.099819214673e-07
 107    0.0001145698239516
 108    -0.00016104950349717
 109    -0.00059788206691543
 110    2.5580908098634e-05
 111    -1.7141425557077e-06
 112    0.00040765144035345
 113    -0.00057306583160761
 114    -0.0021277167892104
 115    9.1035977391084e-05
 116    -6.1004122601038e-06
 117    0.0010599089879901
 118    -0.0014904379757337
 119    -0.005533175106686
 120    0.00023674336916452
 121    -1.5864656740654e-05
 122    0.0017939390216754
 123    -0.0025202449782465
 124    -0.0093598614365907
 125    0.00040054688490359
 126    -2.6840508910107e-05
 127    0.0016781463938219
 128    -0.0023251221971234
 129    -0.0086770465636654
 130    0.00037229155962823
 131    -2.4930202219416e-05
 132    0.00089215239841174
 133    -0.0011156951567428
 134    -0.0043135640697118
 135    0.00018866220244935
 136    -1.2569031946101e-05
 137    0.00054407060625115
 138    -0.0005595048892848
 139    -0.0023327105606422
 140    0.00010590632698041
 141    -6.9885570432236e-06
 142    0.00026667496563662
 143    -0.00026862056894027
 144    -0.0011290924470057
 145    5.145074989561e-05
 146    -3.3913897048172e-06
 147    3.0514755473977e-05
 148    -3.1091803468139e-05
 149    -0.00012806838293637
 150    5.8311507187245e-06
 151    -3.838650423344e-07
 152    1.6127909222275e-07
 153    -1.874958785064e-06
 154    -2.2265274346478e-06
 155    6.2658026505544e-08
 156    -4.2713306781026e-09
 157    2.8599716356805e-08
 158    -6.0460656212732e-07
 159    -6.0418667091389e-07
 160    1.8514860242892e-08
 161    -1.1330266097171e-09
 162    -3.2347566482209e-08
 163    -5.5699484108841e-08
 164    -7.4331896339375e-09
 165    -8.2351879113105e-10
 166    1.2563691675673e-11
 167    -6.123883090383e-10
 168    -2.6562725991501e-08
 169    2.6548770470757e-09
 170    3.2967632098629e-10
 171    -8.7034494514715e-12
 172    1.1273080047114e-08
 173    8.3782413571924e-08
 174    3.3243466323551e-08
 175    -4.4326382091222e-10
 176    1.9254522712546e-11
 177    -1.7443076523801e-10
 178    1.5994686505289e-10
 179    1.6109773089961e-08
 180    1.8555208435251e-07
 181    -9.9954736352835e-09
 182    -1.7321358723003e-09
 183    7.6623170285798e-11
 184    -6.5820862363223e-10
 185    6.0350720209705e-10
 186    1.2229876839778e-08
 187    2.6454626566018e-07
 188    -1.1119062990888e-06
 189    -9.6242890994912e-09
 190    4.4086096215905e-10
 191    -3.4058267999174e-09
 192    3.1229891196923e-09
 193    -3.5579553579682e-07
 194    -6.3762734689679e-07
 195    -4.7702317594383e-06
 196    -3.1543865691402e-08
 197    1.4427509499184e-09
 198    -1.1193156672054e-08
 199    1.0263138203062e-08
 200    -2.0462793076966e-07
 201    3.3596168627996e-07
 202    -1.0976287606882e-05
 203    -7.930570276793e-08
 204    3.6830906847108e-09
 205    -2.7215602251088e-08
 206    2.4954767277041e-08
 207    1.3353375882261e-06
 208    4.9903311398132e-06
 209    -1.7263579948008e-05
 210    -1.3353134324713e-07
 211    6.217369062142e-09
 212    -4.5568403473654e-08
 213    4.1782602098226e-08
 214    1.5040621623671e-06
 215    5.0791130532564e-06
 216    -1.9204106226653e-05
 217    -1.4075308086708e-07
 218    6.5327578945254e-09
 219    -4.8425244419001e-08
 220    4.4402309161542e-08
 221    1.0343138284762e-06
 222    3.7870567975435e-06
 223    -1.130947595178e-05
 224    -9.1161023901677e-08
 225    4.2700977150521e-09
 226    -3.0676725995973e-08
 227    2.8128140626032e-08
 228    3.0580733979382e-07
 229    1.0647596075757e-06
 230    -3.3875821651896e-06
 231    -2.4482263399101e-08
 232    1.1030633909832e-09
 233    -9.0274177679645e-09
 234    8.2774473449548e-09
 235    9.3051405295695e-09
 236    -4.2923561579491e-08
 237    -3.3221845921526e-07
 238    -9.7255796647087e-10
 239    4.2958103081648e-11
 240    -3.7539563119613e-10
 241    3.4417815300875e-10
 242    7.8006279189708e-09
 243    4.8025692250918e-08
 244    -6.8054650443653e-09
 245    -6.0369554135453e-10
 246    3.4284585788313e-11
 247    -1.1075174722563e-10
 248    1.0157970123296e-10
 249    -3.7553500808454e-09
 250    -3.6148936692112e-08
 251    -4.7167450515915e-09
 252    4.2324143338054e-10
 253    -2.9637061135537e-11
 254    3.9437862104431e-11
 255    -3.6164569214229e-11
 256    -6.5984482000342e-08
 257    3.1705815325517e-08
 258    2.0770037834434e-07
 259    -7.5745284157455e-09
 260    4.986542995925e-10
 261    -8.3348695545487e-12
 262    7.6423487452647e-12
 263    -8.6198447570611e-15
 264    2.254459307195e-15
 265    2.5400412954303e-08
 266    -9.6414129546497e-10
 267    -8.4415363778987e-08
 268    3.0448511135717e-09
 269    -2.0046585571632e-10
 270    3.066149614823e-12
 271    -2.800907263175e-12
 272    1.3963171393117e-14
 273    1.1046075808983e-15
 274    -1.2850997780228e-08
 275    8.8954622853092e-09
 276    5.2320375809679e-08
 277    -1.8500842787199e-09
 278    1.2153562018489e-10
 279    -1.7604502060229e-12
 280    1.6218263991339e-12
 281    -1.5455305606051e-14
 282    -1.1965225588584e-14
 283    2.1834310210232e-09
 284    -1.4674887718218e-08
 285    -2.1613351221129e-08
 286    8.8015888703067e-10
 287    -6.037429555751e-11
 288    3.4805181321285e-12
 289    -3.187585402931e-12
 290    3.0573064726173e-15
 291    8.0286488130591e-16
 292    5.1937815153595e-14
 293    1.8419179026063e-14
 294    2.0367697153471e-13
 295    -5.8829726226598e-14
 296    1.1316777384027e-12
 297    -1.4854560930154e-12
 298    7.6656130718097e-12
 299    -1.5082249834817e-11
 300    5.3803192523233e-11
 301    -1.2264028896487e-10
 302    3.6388517669687e-10
 303    -8.9611735034657e-10
 304    2.2044861272789e-09
 305    -5.2144413199857e-09
 306    9.989208311944e-09
 307    -1.53338392398e-08
 308    1.8706105027564e-08
 309    -1.5401751433199e-08
 310    3.7984087163683e-09
 311    7.5422520913563e-09
 312    -9.2904985232254e-09
 313    4.1472424764098e-09
 314    8.3084563094842e-10
 315    4.6903119241836e-09
 316    3.0411786388304e-09
 317    9.3421486331366e-15
 318    1.8629824099815e-14
 319    -2.2280705901689e-13
 320    4.6071700983199e-14
 321    1.0019694435104e-13
 322    1.2472057490822e-13
 323    2.1985327774248e-14
 324    3.4913141636489e-14
 325    -1.2083381929055e-13
 326    5.3879760793473e-13
 327    1.1697972787459e-12
 328    2.2592767581438e-13
 329    -5.7738746014334e-13
 330    -1.3287248387048e-12
 331    -1.570206092061e-13
 332    6.4616437536843e-12
 333    1.3724271944895e-11
 334    1.5745327834416e-12
 335    -1.3528063511955e-11
 336    -2.8507631663346e-11
 337    -8.349730761036e-13
 338    7.1131826695733e-11
 339    1.4619351099147e-10
 340    1.1725797499693e-11
 341    -1.7502827763193e-10
 342    -3.5581937293644e-10
 343    -2.1717641194044e-12
 344    5.8148656111491e-10
 345    1.1589707876936e-09
 346    6.0566346854497e-11
 347    -1.3664441990922e-09
 348    -2.7157077579711e-09
 349    -1.8695901781784e-11
 350    2.9253839759169e-09
 351    5.7081597014194e-09
 352    9.8199480741846e-11
 353    -5.6113490232188e-09
 354    -1.074300921705e-08
 355    -2.4880989659698e-10
 356    8.4066765055065e-09
 357    1.5851414010611e-08
 358    -5.1061125025195e-11
 359    -1.0243127418735e-08
 360    -1.8813508449846e-08
 361    1.5110632767191e-10
 362     1.04911359242e-08
 363    1.8247484308077e-08
 364    9.971048607057e-11
 365    -7.7542646553567e-09
 366    -1.2176666128972e-08
 367    1.209651699056e-09
 368    2.958629767643e-09
 369    3.9778385127997e-09
 370    -3.8712188185865e-09
 371    8.5652888801431e-10
 372    -2.4552500642266e-10
 373    4.1881504923329e-09
 374    -5.8091979119607e-09
 375    7.3329384475094e-10
 376    -4.2922156316425e-09
 377    3.5939229591132e-08
 378    1.5484854039245e-08
 379    -2.138763489811e-10
 380    1.0445877591658e-08
 381    -9.2761555709519e-09
 382    -1.7890194299068e-09
 383    2.7874175602267e-12
 384    1.3285415701313e-11
 385    2.9079721410175e-11
 386    -2.7478743565913e-14
 387    2.212547931173e-15
 388    -1.0734415672081e-11
 389    -5.9316304308262e-11
 390    -1.2763248828179e-10
 391    1.6772492925167e-13
 392    -1.5530717183445e-14
 393    3.2811791134296e-11
 394    1.9272298915411e-10
 395    4.1223386245913e-10
 396    -4.3451953437359e-13
 397    3.4818311453691e-14
 398    -8.3326993998202e-11
 399    -5.5842399558985e-10
 400    -1.1736995832001e-09
 401    1.9461603978765e-12
 402    -1.4807881844967e-13
 403    2.3252260211292e-10
 404    1.4981813300017e-09
 405    3.1682728391449e-09
 406    -3.4102701910283e-12
 407    2.4281893155364e-13
 408    -4.9771023784971e-10
 409    -3.6086625547117e-09
 410    -7.4982215479353e-09
 411    1.6355790970412e-11
 412    -1.1787511905126e-12
 413    1.1487836981989e-09
 414    7.3826494813797e-09
 415    1.5555530761536e-08
 416    -2.5335747429146e-11
 417    1.7916857262914e-12
 418    -1.8682202917303e-09
 419    -1.2361912378052e-08
 420    -2.5946369374643e-08
 421    6.9345399686838e-11
 422    -4.6619572772293e-12
 423    2.4828456690952e-09
 424    1.6931669260177e-08
 425    3.5534890163793e-08
 426    -1.2824533942861e-10
 427    8.6297411999346e-12
 428    -2.6931469681491e-09
 429    -1.8890387520594e-08
 430    -4.0571038020259e-08
 431    1.5757764564048e-10
 432    -1.076601909573e-11
 433    1.1770768253963e-09
 434    1.5835642513999e-08
 435    3.5255052786414e-08
 436    -2.2177146623248e-10
 437    1.5203724991799e-11
 438    1.5288029656554e-09
 439    -9.3128023386525e-09
 440    -2.3196065894356e-08
 441    2.7387101287834e-10
 442    -1.8864115362606e-11
 443    -2.8641651460699e-09
 444    2.3814778356755e-09
 445    1.281331745893e-08
 446    -1.5397475605996e-10
 447    1.1286328877603e-11
 448    3.7351856392152e-09
 449    6.2757764927782e-09
 450    -3.7666185405737e-09
 451    1.3378251927212e-10
 452    -1.066260279923e-11
 453    -2.3438245425042e-09
 454    -2.300495117999e-08
 455    -8.5244653278115e-09
 456    -3.6898340129415e-10
 457    2.7047615115601e-11
 458    -1.2275078122473e-09
 459    -1.868111642455e-08
 460    1.6529269733114e-09
 461    -3.2229354072712e-10
 462    2.1165450910701e-11
 463    -4.0006442761752e-11
 464    6.4375324499603e-11
 465    1.1565823088305e-10
 466    -7.8100525895244e-13
 467    4.9396475024124e-14
 468    1.3602735276457e-15
 469    -5.8573028760901e-16
 470    1.6476862708522e-10
 471    -2.5317637222432e-10
 472    -4.5186994652236e-10
 473    3.3653873024956e-12
 474    -2.2030108362822e-13
 475    -4.7687899718854e-15
 476    2.8160653929142e-15
 477    -4.5415117464569e-10
 478    6.6527810533106e-10
 479    1.1471470162656e-09
 480    -9.8637789799847e-12
 481    6.5457708703379e-13
 482    1.7594801742307e-14
 483    -1.1598594446534e-14
 484    1.0683273951436e-09
 485    -1.3962277892933e-09
 486    -2.3484468680463e-09
 487    2.5579801849297e-11
 488    -1.7081763110623e-12
 489    -4.2371630844889e-14
 490    1.2040048998105e-14
 491    -2.0723735669796e-09
 492    2.5012842315322e-09
 493    3.8419764885863e-09
 494    -5.5331210756257e-11
 495    3.7135056694425e-12
 496    1.6197568689903e-13
 497    -8.6714195708617e-14
 498    3.2315507477541e-09
 499    -3.3480837167116e-09
 500    -4.7459199671832e-09
 501    1.0210011352849e-10
 502    -6.8797629316282e-12
 503    -2.5012149930789e-13
 504    1.7520200208162e-13
 505    -4.0743474646834e-09
 506    4.113257053164e-09
 507    4.5669673070644e-09
 508    -1.6023986741239e-10
 509    1.0838239271456e-11
 510    2.7901153802571e-13
 511    -2.2605659639896e-13
 512    3.8294248776188e-09
 513    -3.8048742685931e-09
 514    -2.8414926857724e-09
 515    2.056846894381e-10
 516    -1.3974330345732e-11
 517    -3.4333714693204e-13
 518    2.9751783683697e-13
 519    -2.771739362383e-09
 520    2.7480908017349e-09
 521    4.4853984217622e-10
 522    -2.2811013633253e-10
 523    1.5620401875275e-11
 524    5.2109423866305e-13
 525    -4.7244686757727e-13
 526    2.3319067746532e-09
 527    -3.5206067998126e-09
 528    9.8999779324008e-10
 529    2.4789012921966e-10
 530    -1.7302415666706e-11
 531    -1.0359187129091e-12
 532    9.4510220134167e-13
 533    -2.6323784385983e-09
 534    2.2756151787931e-09
 535    -2.3748690496083e-09
 536    -2.6035758730796e-10
 537    1.9029272295113e-11
 538    2.1904004833885e-12
 539    -2.0204274869977e-12
 540    2.7984480285041e-09
 541    1.4357015904854e-08
 542    1.306694632575e-09
 543    5.4209495322995e-10
 544    -4.0452167026746e-11
 545    -4.140818977988e-12
 546    3.8055359713443e-12
 547    2.3739955947231e-10
 548    6.5623790467294e-10
 549    3.2307250933008e-09
 550    5.6519230555926e-11
 551    -3.8904412191696e-12
 552    -2.5961447738758e-13
 553    2.4210196576989e-13
 554    -3.4667918371685e-15
 555    -2.1059419041498e-15
 556    2.6392427601425e-11
 557    8.4842659179865e-10
 558    -4.3462415740333e-09
 559    -1.2386472869567e-10
 560    8.6853598042169e-12
 561    8.7219069841278e-13
 562    -8.0907421513611e-13
 563    -3.3087286334478e-15
 564    -4.1503559865132e-15
 565    -2.2361097567462e-10
 566    -5.4877278815641e-09
 567    3.3767020446774e-09
 568    1.5965845251041e-10
 569    -1.158082570915e-11
 570    -2.1453639991278e-12
 571    1.9646178337605e-12
 572    -1.2041242784289e-15
 573    -5.2147277145359e-15
 574    -2.273011259497e-10
 575    2.7345093937992e-09
 576    1.1843060555897e-09
 577    -2.2169208244923e-10
 578    1.8993448728468e-11
 579    5.0884265993633e-12
 580    -4.6446011320081e-12
 581    1.4834288548988e-14
 582    3.6087942197083e-14
 Sym= A
 Ene=               1
 Spin= Alpha
 Occup=   -0.00000
   1    -0.00031525309321005
   2    -0.00034412426089049
   3    -0.00088621526193908
   4    -0.0014849588098322
   5    -0.0029827043710483
   6    -0.0055136692709658
   7    -0.010784497657709
   8    -0.020908720488138
   9    -0.040502919421629
  10    -0.071577601143556
  11    -0.096873772371473
  12    -0.041592806855067
  13      0.15929754783179
  14      0.24215952715381
  15      0.09678750938922
  16      0.08716538927007
  17     0.035380863619134
  18    -0.0051404298548806
  19    -0.0025522860751454
  20    0.00011157651536184
  21    7.5827988000092e-05
  22    1.2950273085746e-06
  23    2.5711865038459e-07
  24    -2.2553024354331e-08
  25    -3.7029108698135e-09
  26    -2.5711928746611e-06
  27    9.1666815844373e-06
  28    3.0379385004426e-07
  29    -7.2904637013089e-06
  30    2.5873812697214e-05
  31    8.6653176115871e-07
  32    -2.3201593095616e-05
  33    8.1888883724922e-05
  34    2.7775106007996e-06
  35    -6.8899795827059e-05
  36    0.00024153530188633
  37    8.3198713016951e-06
  38    -0.00020837451002817
  39    0.0007213107956464
  40    2.5562433891441e-05
  41    -0.00063734111157963
  42    0.0021712189508663
  43    7.9714523965265e-05
  44    -0.0019853129446698
  45    0.0065437024564115
  46    0.00025790510988322
  47    -0.0060690421320799
  48     0.019070589452585
  49    0.00082915842853652
  50    -0.017598789843052
  51      0.05044823272559
  52    0.0026163086091515
  53    -0.042403342676515
  54       0.1082937076628
  55    0.0068829810701034
  56    -0.066575326205837
  57       0.1552794089593
  58     0.011450959139947
  59     0.027158971728813
  60     0.087434564855456
  61    -0.011253658913358
  62      0.33062659852781
  63    -0.076383358867744
  64    -0.087183292398558
  65      0.38706843845518
  66     -0.11386029174471
  67     -0.10098390101137
  68      0.09964951144807
  69    -0.034386148209411
  70    -0.025958397358783
  71    -0.0047384215284503
  72    -0.0077045659894158
  73    0.0013266832572067
  74    -0.0024035466488461
  75    -0.0019926949935698
  76    0.00064310570614442
  77    -0.00015768216028098
  78    -8.4875347815174e-05
  79    2.2214984147657e-05
  80    5.0484552235444e-06
  81    -1.864785271859e-05
  82    -1.0750484040935e-05
  83    4.049696357281e-07
  84    -3.4609539769439e-07
  85    -4.3389409876028e-07
  86    4.2719117720265e-08
  87    2.1066502772548e-08
  88    -1.8845474825009e-08
  89    -3.2587924776534e-08
  90    -1.0138714810165e-09
  91    -8.6788098919193e-09
  92    6.2482832644504e-07
  93    6.8785043696718e-06
  94    2.6333194396239e-06
  95    3.2750466962323e-07
  96    -4.2522771485757e-07
  97    1.880496216364e-06
  98    2.066372975916e-05
  99    7.9098093985276e-06
 100    9.8389285108872e-07
 101    -1.2774735184812e-06
 102    9.4864118648645e-06
 103    0.00010447640696104
 104    4.0007179693442e-05
 105    4.9746067769295e-06
 106    -6.4589630009725e-06
 107    3.9691605347745e-05
 108    0.00043680674191164
 109    0.00016726020235314
 110    2.0798915977204e-05
 111    -2.7005034755833e-05
 112    0.00014122804051022
 113    0.0015546123923788
 114    0.00059521248781767
 115    7.4018071435349e-05
 116    -9.610405753352e-05
 117    0.00036815720505457
 118     0.004042491272777
 119    0.0015479225928485
 120    0.00019248749155729
 121    -0.00024992312160798
 122    0.00062229691304426
 123    0.0068399645564375
 124    0.0026180988466914
 125    0.00032567024887865
 126    -0.00042284586822055
 127    0.00055700287803076
 128    0.0063612499108012
 129    0.0024230162147652
 130    0.00030269737101489
 131    -0.00039301960402585
 132    0.00020395935844467
 133    0.0032345654095722
 134    0.0011899538302483
 135    0.00015339664641722
 136    -0.0001991742384071
 137    3.3237650846972e-05
 138    0.0018280344144103
 139    0.00062759206672075
 140    8.6111879066289e-05
 141    -0.00011181552250193
 142    1.1453271544771e-05
 143    0.00088877256699619
 144    0.00030297588900589
 145    4.1834448412297e-05
 146    -5.4321967548982e-05
 147    8.4118582206029e-07
 148    9.9661965273262e-05
 149    3.4588260785784e-05
 150    4.7413081701068e-06
 151    -6.1565858739618e-06
 152    3.8877774510793e-07
 153    -7.0450631299985e-07
 154    1.081080741311e-06
 155    5.0945586708947e-08