[Molden Format]
made by pyscf v[1.6]
[Atoms] (AU)
Pb   1   82     0.00000000000000     0.00000000000000     0.00000000000000
Po   2   84     0.00000000000000     0.00000000000000     6.22664758044188
[GTO]
1 0
 s    1 1.00
            53286308.1                   1
 s    1 1.00
            12563091.6                   1
 s    1 1.00
            3649632.71                   1
 s    1 1.00
            1155667.46                   1
 s    1 1.00
            393662.372                   1
 s    1 1.00
            141880.712                   1
 s    1 1.00
            53715.8205                   1
 s    1 1.00
            21155.9239                   1
 s    1 1.00
            8592.02151                   1
 s    1 1.00
            3587.69911                   1
 s    1 1.00
            1543.12835                   1
 s    1 1.00
            682.751108                   1
 s    1 1.00
            310.809922                   1
 s    1 1.00
            147.336687                   1
 s    1 1.00
            72.0274889                   1
 s    1 1.00
            36.0688738                   1
 s    1 1.00
             17.914637                   1
 s    1 1.00
            8.78523935                   1
 s    1 1.00
            4.25459609                   1
 s    1 1.00
            1.87416029                   1
 s    1 1.00
            0.78526814                   1
 s    1 1.00
            0.29369027                   1
 s    1 1.00
            0.10014454                   1
 s    1 1.00
            0.04005781                   1
 s    1 1.00
            0.01602312                   1
 p    1 1.00
            18424232.6                   1
 p    1 1.00
            3401762.55                   1
 p    1 1.00
            789635.475                   1
 p    1 1.00
            211624.228                   1
 p    1 1.00
            63404.1081                   1
 p    1 1.00
             20924.975                   1
 p    1 1.00
            7562.84898                   1
 p    1 1.00
            2974.21901                   1
 p    1 1.00
            1257.78781                   1
 p    1 1.00
            563.372044                   1
 p    1 1.00
            263.909129                   1
 p    1 1.00
            127.784575                   1
 p    1 1.00
            61.9403223                   1
 p    1 1.00
            31.2051312                   1
 p    1 1.00
            15.5810598                   1
 p    1 1.00
            7.65220691                   1
 p    1 1.00
            3.69552968                   1
 p    1 1.00
            1.63409775                   1
 p    1 1.00
            0.69245606                   1
 p    1 1.00
            0.18951736                   1
 p    1 1.00
            0.05915108                   1
 p    1 1.00
            0.02366043                   1
 d    1 1.00
            8592.02151                   1
 d    1 1.00
            3587.69911                   1
 d    1 1.00
            1543.12835                   1
 d    1 1.00
            682.751108                   1
 d    1 1.00
            310.809922                   1
 d    1 1.00
            147.336687                   1
 d    1 1.00
            72.0274889                   1
 d    1 1.00
            36.0688738                   1
 d    1 1.00
             17.914637                   1
 d    1 1.00
            8.78523935                   1
 d    1 1.00
            4.25459609                   1
 d    1 1.00
            1.87416029                   1
 d    1 1.00
            0.78526814                   1
 d    1 1.00
            0.29369027                   1
 d    1 1.00
             0.1174761                   1
 d    1 1.00
            0.04699044                   1
 f    1 1.00
            563.372044                   1
 f    1 1.00
            263.909129                   1
 f    1 1.00
            127.784575                   1
 f    1 1.00
            61.9403223                   1
 f    1 1.00
            31.2051312                   1
 f    1 1.00
            15.5810598                   1
 f    1 1.00
            7.65220691                   1
 f    1 1.00
            3.69552968                   1
 f    1 1.00
            1.63409775                   1
 f    1 1.00
             0.6536391                   1
 f    1 1.00
            0.26145564                   1
 f    1 1.00
            0.10458226                   1
 g    1 1.00
              1.536795                   1
 g    1 1.00
              0.614718                   1
 g    1 1.00
              0.245887                   1
 g    1 1.00
              0.098355                   1

2 0
 s    1 1.00
            54498862.1                   1
 s    1 1.00
            13096120.9                   1
 s    1 1.00
            3878386.94                   1
 s    1 1.00
            1248126.68                   1
 s    1 1.00
             430885.75                   1
 s    1 1.00
            156915.928                   1
 s    1 1.00
            59878.6489                   1
 s    1 1.00
              23713.98                   1
 s    1 1.00
            9664.09077                   1
 s    1 1.00
             4042.6813                   1
 s    1 1.00
            1740.53627                   1
 s    1 1.00
            771.429054                   1
 s    1 1.00
             350.90462                   1
 s    1 1.00
            166.226015                   1
 s    1 1.00
            81.2310139                   1
 s    1 1.00
             40.699368                   1
 s    1 1.00
            20.3490525                   1
 s    1 1.00
             10.048661                   1
 s    1 1.00
             4.9195767                   1
 s    1 1.00
            2.21311774                   1
 s    1 1.00
            0.96083709                   1
 s    1 1.00
            0.37253482                   1
 s    1 1.00
            0.13185443                   1
 s    1 1.00
            0.05274177                   1
 s    1 1.00
             0.0210967                   1
 p    1 1.00
            20045996.7                   1
 p    1 1.00
             3786356.9                   1
 p    1 1.00
            890330.888                   1
 p    1 1.00
             240434.87                   1
 p    1 1.00
            72292.2646                   1
 p    1 1.00
            23852.7825                   1
 p    1 1.00
            8590.61706                   1
 p    1 1.00
            3360.33711                   1
 p    1 1.00
            1413.27346                   1
 p    1 1.00
            630.180015                   1
 p    1 1.00
            294.176966                   1
 p    1 1.00
            142.106857                   1
 p    1 1.00
            68.8791995                   1
 p    1 1.00
            34.7394672                   1
 p    1 1.00
            17.3925236                   1
 p    1 1.00
            8.58678154                   1
 p    1 1.00
            4.18303674                   1
 p    1 1.00
            1.88215634                   1
 p    1 1.00
            0.82550127                   1
 p    1 1.00
            0.25531368                   1
 p    1 1.00
            0.08323531                   1
 p    1 1.00
            0.03329412                   1
 d    1 1.00
            9664.09077                   1
 d    1 1.00
             4042.6813                   1
 d    1 1.00
            1740.53627                   1
 d    1 1.00
            771.429054                   1
 d    1 1.00
             350.90462                   1
 d    1 1.00
            166.226015                   1
 d    1 1.00
            81.2310139                   1
 d    1 1.00
             40.699368                   1
 d    1 1.00
            20.3490525                   1
 d    1 1.00
             10.048661                   1
 d    1 1.00
             4.9195767                   1
 d    1 1.00
            2.21311774                   1
 d    1 1.00
            0.96083709                   1
 d    1 1.00
            0.37253482                   1
 d    1 1.00
            0.14901392                   1
 d    1 1.00
            0.05960556                   1
 f    1 1.00
            630.180015                   1
 f    1 1.00
            294.176966                   1
 f    1 1.00
            142.106857                   1
 f    1 1.00
            68.8791995                   1
 f    1 1.00
            34.7394672                   1
 f    1 1.00
            17.3925236                   1
 f    1 1.00
            8.58678154                   1
 f    1 1.00
            4.18303674                   1
 f    1 1.00
            1.88215634                   1
 f    1 1.00
            0.75286253                   1
 f    1 1.00
            0.30114501                   1
 f    1 1.00
              0.120458                   1
 g    1 1.00
              1.767416                   1
 g    1 1.00
             0.7069664                   1
 g    1 1.00
             0.2827865                   1
 g    1 1.00
             0.1131146                   1

[5d]
[9g]


[MO]
 Sym= A
 Ene=               0
 Spin= Alpha
 Occup=   -0.00000
   1    -0.00036779992888801
   2    -0.0004009508158838
   3    -0.0010311197310006
   4    -0.0017200775571672
   5    -0.0034331918020845
   6    -0.0062705914442396
   7    -0.012046925124692
   8    -0.022662274689213
   9    -0.041745158997058
  10    -0.067293959770242
  11    -0.079080528499428
  12    -0.044541247857355
  13     0.013054437137949
  14     0.062427150990106
  15     -0.01362940354933
  16     -0.18433174066032
  17     -0.07750602770807
  18     0.028422264746545
  19     0.012737949326046
  20    -5.3647067807071e-05
  21    -0.000149799215979
  22    -2.1880887401619e-06
  23    2.4800562355119e-07
  24    -4.2748072540171e-08
  25    1.3887190651957e-08
  26    -3.3252038955814e-07
  27    -5.7270538257831e-07
  28    -3.7601775239106e-06
  29    -9.3812767712002e-07
  30    -1.618092497611e-06
  31    -1.0602417033667e-05
  32    -2.9674012949231e-06
  33    -5.1272586063131e-06
  34    -3.3513267004435e-05
  35    -8.7462655697723e-06
  36    -1.5145345168982e-05
  37    -9.8693506113571e-05
  38    -2.6084477702098e-05
  39    -4.5354359599759e-05
  40    -0.00029386068503344
  41    -7.838158781822e-05
  42    -0.00013700439799795
  43    -0.0008811720875833
  44    -0.00023536656841676
  45    -0.00041598930286847
  46    -0.0026341765764642
  47    -0.00068214898333121
  48    -0.0012258639961456
  49    -0.0075823017562149
  50    -0.0017838515145738
  51    -0.0033166029403869
  52    -0.019541994364035
  53    -0.0037673658660594
  54    -0.0073405039087242
  55    -0.040404220318896
  56    -0.0053246411768305
  57    -0.010801232979833
  58    -0.056005534329234
  59    -0.0038634254642529
  60    -0.0029933049651507
  61    -0.053132381810407
  62    -0.0013676707058459
  63     0.019545129383189
  64    -0.071976490138255
  65    -0.00062298593442348
  66     0.024080996164434
  67    -0.071950437404099
  68    4.370226603278e-05
  69    0.0064484440984056
  70    -0.015843305871633
  71    0.0003735177405799
  72    0.00015156151631759
  73    0.0056774902975881
  74    0.00011249551380162
  75    -1.7118440115029e-05
  76    0.0018635210035618
  77    5.6497428675305e-06
  78    -3.4559614338131e-06
  79    7.6053161237877e-05
  80    7.3830530788248e-07
  81    1.117366286289e-06
  82    -1.7292895137157e-06
  83    1.0368328195996e-08
  84    3.4660483245643e-08
  85    -4.2813405139497e-07
  86    -1.7402542251136e-09
  87    1.1181554513206e-09
  88    -1.8470812597268e-07
  89    4.8252795389366e-10
  90    -1.779591293628e-09
  91    3.2307835002442e-08
  92    8.7686649885193e-06
  93    -2.1948669777128e-07
  94    2.1932979791652e-07
  95    -1.2346237716679e-08
  96    -9.6399214955029e-08
  97    2.6341637022389e-05
  98    -6.5932103528768e-07
  99    6.5893499620476e-07
 100    -3.7090682752315e-08
 101    -2.8960349945731e-07
 102    0.00013318444217309
 103    -3.3341803195485e-06
 104    3.330887813133e-06
 105    -1.8753227851298e-07
 106    -1.4642484071127e-06
 107    0.00055685195494473
 108    -1.3939695996147e-05
 109    1.3926489176376e-05
 110    -7.8407561206467e-07
 111    -6.1220476851502e-06
 112    0.0019820120214544
 113    -4.9609305293033e-05
 114    4.9568688212729e-05
 115    -2.7903283842337e-06
 116    -2.1786816731266e-05
 117    0.0051545653606329
 118    -0.00012900920347319
 119    0.00012888732098887
 120    -7.2563826007141e-06
 121    -5.6657647026409e-05
 122    0.0087202050686085
 123    -0.00021824070439952
 124    0.00021812563317227
 125    -1.2277091107691e-05
 126    -9.5859265105837e-05
 127    0.0080850328853178
 128    -0.00020242383325938
 129    0.00020338739483982
 130    -1.141091186774e-05
 131    -8.909728089485e-05
 132    0.0040137196999221
 133    -0.00010099604676878
 134    0.00010529292764239
 135    -5.7820961010385e-06
 136    -4.5151281445401e-05
 137    0.0021638342727599
 138    -5.5020502908309e-05
 139    6.1509296310529e-05
 140    -3.2452898185285e-06
 141    -2.5346288327479e-05
 142    0.0010465716198635
 143    -2.6650508148456e-05
 144    2.9999959345715e-05
 145    -1.5765820351152e-06
 146    -1.2313596070118e-05
 147     0.000121006937003
 148    -3.0177137819644e-06
 149    3.3373543617998e-06
 150    -1.7867580372765e-07
 151    -1.3955528184214e-06
 152    4.000650715259e-06
 153    -4.0819357253944e-08
 154    -8.1638055491365e-08
 155    -1.923814319847e-09
 156    -1.49859866302e-08
 157    1.1321172442699e-06
 158    -1.0187144671247e-08
 159    -3.2300040825264e-08
 160    -5.6690368815216e-10
 161    -4.428399591752e-09
 162    -1.0787362140957e-07
 163    1.9726394663445e-10
 164    -5.4506880575017e-09
 165    2.4384987905459e-11
 166    1.9695301848352e-10
 167    1.9887869096158e-08
 168    2.0277058741983e-10
 169    -3.1012923235957e-09
 170    -1.4426416698494e-11
 171    -7.9726269253005e-11
 172    -6.6997150196711e-08
 173    1.6707154903277e-10
 174    7.2099902647896e-09
 175    1.3665743869548e-11
 176    1.0626015016591e-10
 177    -1.9294823185134e-12
 178    1.2169087807686e-11
 179    -2.79300420777e-07
 180    -1.3386635931914e-09
 181    2.0372993511004e-08
 182    5.3386534775095e-11
 183    4.1520476351158e-10
 184    -7.2908395511214e-12
 185    4.5915686248984e-11
 186    -1.7748284823886e-06
 187    -2.562368711029e-08
 188    8.6189891446816e-08
 189    2.9652578602957e-10
 190    2.3067698658056e-09
 191    -3.7670842011121e-11
 192    2.3759192855836e-10
 193    -5.6691562148701e-06
 194    -9.6106851226259e-08
 195    1.8172586811857e-07
 196    9.7189972808801e-10
 197    7.5604380423977e-09
 198    -1.2395912182896e-10
 199    7.8084897848112e-10
 200    -1.4531613490111e-05
 201    -2.374598399759e-07
 202    6.0817746887926e-07
 203    2.4431209780571e-09
 204    1.9007174804765e-08
 205    -3.0122901590863e-10
 206    1.8985699283054e-09
 207    -2.6080147651651e-05
 208    -4.1519461417404e-07
 209    1.4265099919272e-06
 210    4.1133352091134e-09
 211    3.2003094128376e-08
 212    -5.04535880841e-10
 213    3.1789104963817e-09
 214    -2.8329682655198e-05
 215    -4.5989613084926e-07
 216    1.535922105268e-06
 217    4.3362473571545e-09
 218    3.3734322869167e-08
 219    -5.3604337098329e-10
 220    3.3781613983015e-09
 221    -1.7592198165114e-05
 222    -2.7616862780209e-07
 223    9.8932843993584e-07
 224    2.8078849536373e-09
 225    2.184779858173e-08
 226    -3.3963541008877e-10
 227    2.1400474686506e-09
 228    -5.0337123751292e-06
 229    -8.2481222562702e-08
 230    2.8901746796697e-07
 231    7.5474473097827e-10
 232    5.8684062994302e-09
 233    -9.9922775993408e-11
 234    6.2973490505316e-10
 235    -2.4289552698739e-07
 236    -7.3501462969779e-09
 237    1.2630651828718e-08
 238    2.9887821170216e-11
 239    2.3275423806865e-10
 240    -4.1692880259738e-12
 241    2.623003216551e-11
 242    -1.1440501118437e-07
 243    -4.4362601153648e-10
 244    5.4011661375622e-09
 245    1.9144470549979e-11
 246    1.4525814456477e-10
 247    -1.2053508934417e-12
 248    7.6365259249599e-12
 249    5.8362489184076e-09
 250    3.8142297978306e-11
 251    -3.5304505185285e-09
 252    -1.630739955134e-11
 253    -1.0293251623036e-10
 254    3.9911232239032e-13
 255    -2.5728567830308e-12
 256    -2.5423995159053e-07
 257    5.1357391168591e-09
 258    -7.3877649857028e-09
 259    2.3196816180291e-10
 260    1.8128653487521e-09
 261    -9.03513138269e-14
 262    5.6929617440607e-13
 263    9.6550288405004e-17
 264    -3.0521710208835e-16
 265    8.2135475366582e-08
 266    -2.1873858960373e-09
 267    4.2358380618976e-09
 268    -9.2640774575668e-11
 269    -7.2902481064432e-10
 270    2.6343412075041e-14
 271    -1.7280906587384e-13
 272    -7.3003986969442e-16
 273    4.3465339289951e-17
 274    -7.6180066013317e-08
 275    1.2773980191985e-09
 276    -1.7428986276944e-09
 277    5.5203038576681e-11
 278    4.4330856770644e-10
 279    -1.3917227900903e-15
 280    2.3130653789332e-14
 281    -3.4850027959812e-16
 282    -6.2357559520366e-16
 283    2.6602781327243e-08
 284    -4.7301454946954e-10
 285    -3.7293399369742e-10
 286    -2.7319680991579e-11
 287    -2.1147171756691e-10
 288    -1.3637541984513e-14
 289    2.0513718083471e-14
 290    4.2701632131739e-16
 291    7.6230860467577e-16
 292    0.0017502206509055
 293    0.0017983493467046
 294    0.0046914368432061
 295    0.0075614279044431
 296      0.01501304334601
 297     0.026859651047123
 298     0.051034001495528
 299     0.094804657857856
 300       0.1741356225362
 301      0.28402245207397
 302      0.34823285094593
 303      0.20889332399263
 304    -0.068937749608864
 305     -0.18966415881822
 306    -0.064671285354297
 307     0.066080483117394
 308     0.034615078320794
 309    -0.0079116168568084
 310    -0.0049147117830005
 311    5.4875795400586e-06
 312    8.4562312277407e-05
 313    2.0900175587787e-06
 314    -1.5332238530199e-07
 315    1.0764117336326e-07
 316    -2.5181252648236e-09
 317    3.4272773694402e-08
 318    -2.5175503368851e-08
 319    -8.9944115939746e-09
 320    9.3811720935236e-08
 321    -6.8873574289036e-08
 322    -2.4668548711702e-08
 323    2.9382308886316e-07
 324    -2.155808419628e-07
 325    -7.7336482536117e-08
 326    8.5237652001578e-07
 327    -6.248976493694e-07
 328    -2.2472137419862e-07
 329    2.507776869525e-06
 330    -1.8358799144629e-06
 331    -6.6276931721063e-07
 332    7.438262547324e-06
 333    -5.4350333059333e-06
 334    -1.9726640316207e-06
 335    2.2192198109798e-05
 336    -1.6152964451037e-05
 337    -5.9243336313481e-06
 338    6.4463847811667e-05
 339    -4.6646468797679e-05
 340    -1.7399463891534e-05
 341    0.00017198716296812
 342    -0.00012297826168017
 343    -4.7300655273384e-05
 344    0.00037794329997915
 345    -0.00026572188938317
 346    -0.0001065152079037
 347    0.00056622285878236
 348    -0.00039162078108296
 349    -0.00016354301867778
 350    0.00030945278964605
 351    -0.00027187056926767
 352    -5.2738780304202e-05
 353    -0.00047166709350428
 354    3.4284982729953e-05
 355    0.00031861651209819
 356    -0.00071290560243374
 357    0.00013017114761006
 358    0.00043054205448768
 359    -0.0001992940043152
 360    4.6336806218461e-05
 361    0.00013157813552312
 362    1.825088126754e-05
 363    1.6755816754445e-05
 364    8.3341801935686e-06
 365    8.9038732024534e-06
 366    4.873371485283e-06
 367    4.3110251928581e-06
 368    6.2681580543369e-07
 369    2.6105191117569e-07
 370    9.220092562678e-06
 371    4.4597725426682e-08
 372    2.9623977480527e-08
 373    4.3206305387781e-06
 374    5.0824240697515e-12
 375    1.9249673216538e-09
 376    1.8624222266879e-07
 377    1.6547635961776e-11
 378    1.9401493978117e-09
 379    -1.2366271992138e-07
 380    -2.783516171337e-10
 381    2.2882981601434e-09
 382    -3.155088976266e-08
 383    -5.112917971005e-07
 384    1.5497583864957e-08
 385    -5.355237313488e-08
 386    7.8773917570272e-09
 387    -1.6863816056621e-09
 388    -1.4963726340922e-06
 389    4.5435816322852e-08
 390    -1.5701907132329e-07
 391    2.3096366559174e-08
 392    -4.9443902724776e-09
 393    -7.5302894150205e-06
 394    2.2714114710997e-07
 395    -7.8491732860668e-07
 396    1.1546292267886e-07
 397    -2.4718968322037e-08
 398    -3.1403213544449e-05
 399    9.4735082865129e-07
 400    -3.2738127613028e-06
 401    4.8158163790948e-07
 402    -1.0310176506062e-07
 403    -0.00011333280803879
 404    3.4200101982632e-06
 405    -1.1815392339699e-05
 406    1.7381026960373e-06
 407    -3.7214190655994e-07
 408    -0.00030258850315065
 409    9.1393260416516e-06
 410    -3.1572384946476e-05
 411    4.6445141069416e-06
 412    -9.9449381539712e-07
 413    -0.00053400432195675
 414    1.6133433558541e-05
 415    -5.573291056728e-05
 416    8.1982368905664e-06
 417    -1.7552655090937e-06
 418    -0.00052443187993011
 419    1.5698918748408e-05
 420    -5.4333967317571e-05
 421    7.9853541592314e-06
 422    -1.7068751405282e-06
 423    -0.00027300171358875
 424    7.4662965051315e-06
 425    -2.6301357064844e-05
 426    3.8366239656931e-06
 427    -8.079944397558e-07
 428    -0.00014585913476786
 429    3.1313040386047e-06
 430    -1.1639624069569e-05
 431    1.6603768458881e-06
 432    -3.3410816119431e-07
 433    -7.4145060174403e-05
 434    1.5203890811339e-06
 435    -5.7108428054308e-06
 436    8.1070153377066e-07
 437    -1.6133577138697e-07
 438    -9.4536465187998e-06
 439    1.9492680740843e-07
 440    -7.3803329657182e-07
 441    1.0512322176395e-07
 442    -2.0854072679206e-08
 443    4.2330061122757e-08
 444    2.7023507380128e-09
 445    -9.5758250973713e-09
 446    1.9619501757197e-09
 447    -3.8166072880239e-10
 448    -7.27666039435e-08
 449    4.0512866260665e-10
 450    -2.644844014552e-09
 451    6.2950730754912e-10
 452    -1.3253187205711e-10
 453    1.7169178757669e-08
 454    -2.0184369944362e-10
 455    -1.2330283696888e-09
 456    -4.7300638216842e-11
 457    8.9876324321008e-11
 458    4.2388271870009e-08
 459    7.1590365310237e-11
 460    -2.5140893847319e-09
 461    2.8362062457842e-11
 462    7.8592758470032e-11
 463    1.1991087767027e-08
 464    2.5550911020751e-10
 465    -2.1008447384081e-09
 466    4.2145802885773e-11
 467    8.8475938333887e-12
 468    -1.4336486378927e-12
 469    6.9597421756042e-12
 470    2.636905527313e-08
 471    6.7898996498391e-10
 472    -7.878721626496e-09
 473    1.6146766739114e-10
 474    3.2066125541899e-11
 475    -5.4718858218763e-12
 476    2.6560254531856e-11
 477    1.9345102578003e-07
 478    2.7340748090117e-09
 479    -4.0512923976711e-08
 480    8.6289901921673e-10
 481    1.7237200738781e-10
 482    -2.8762873574499e-11
 483    1.3962934169126e-10
 484    6.2619885229301e-07
 485    5.915529761728e-09
 486    -1.3437273843027e-07
 487    2.8886522523388e-09
 488    5.6060105805132e-10
 489    -9.6138509211656e-11
 490    4.6666277552511e-10
 491    1.553346908419e-06
 492    1.7960428893711e-08
 493    -3.3374393296158e-07
 494    7.226822341701e-09
 495    1.4037650848532e-09
 496    -2.3820307295091e-10
 497    1.1563690979048e-09
 498    2.5778194506575e-06
 499    4.1709695476021e-08
 500    -5.7191771844652e-07
 501    1.2377990318907e-08
 502    2.3371989753697e-09
 503    -4.0652103793678e-10
 504    1.9733934363149e-09
 505    2.7244547949584e-06
 506    4.6760512590227e-08
 507    -6.1234751544776e-07
 508    1.3268584990185e-08
 509    2.5726353705102e-09
 510    -4.3582680938339e-10
 511    2.1156799793363e-09
 512    1.7542460977158e-06
 513    2.8865186710429e-08
 514    -3.8432838212628e-07
 515    8.3260532283786e-09
 516    1.5285523691139e-09
 517    -2.7260972800841e-10
 518    1.3233599472147e-09
 519    4.9039745770149e-07
 520    8.0239502920434e-09
 521    -1.0704248456948e-07
 522    2.313031329941e-09
 523    5.0268074025326e-10
 524    -7.6335194284565e-11
 525    3.7055175673665e-10
 526    2.6440820817586e-08
 527    6.463759119168e-10
 528    -3.8281119579305e-09
 529    6.5680985411886e-11
 530    -4.5338566459863e-11
 531    -2.4116182741414e-12
 532    1.1728328472784e-11
 533    -3.9760782111848e-09
 534    -3.3466384193463e-11
 535    -8.7200567589875e-10
 536    3.6289217952994e-11
 537    6.7191323296643e-11
 538    -7.9997705783921e-13
 539    3.8473773958568e-12
 540    -1.2714522818007e-08
 541    3.7913092796275e-11
 542    1.942590180376e-09
 543    -2.6993501507029e-11
 544    -1.3308114623776e-10
 545    2.6459155785949e-13
 546    -1.2169262959734e-12
 547    -1.3468485680523e-08
 548    2.6317715521927e-10
 549    -7.9612293291521e-10
 550    8.1450995413153e-11
 551    -3.1177976300963e-11
 552    6.9292163905639e-14
 553    -3.3128153592147e-13
 554    2.1826169970732e-18
 555    -4.3206392394134e-17
 556    9.7466492683048e-09
 557    -1.9780807116924e-10
 558    6.2355965233272e-10
 559    -3.159006194303e-11
 560    3.727042229688e-11
 561    -1.8437181835786e-14
 562    7.394063055394e-14
 563    -3.6003014307236e-17
 564    -6.0117253665182e-18
 565    -5.1692943187064e-09
 566    1.926193849176e-10
 567    -8.7189376120141e-10
 568    1.3258674655086e-11
 569    -4.2461642285778e-11
 570    -7.015279057497e-16
 571    3.5678630910292e-14
 572    -1.4018166809113e-16
 573    -1.1141796985005e-16
 574    4.8016640091669e-10
 575    -7.3790867016906e-11
 576    2.1897870595264e-10
 577    1.0363460762364e-12
 578    5.5684412508701e-11
 579    2.0869688200174e-14
 580    -1.7865811117405e-13
 581    -6.0053237857115e-18
 582    -3.2901620936004e-16
 Sym= A
 Ene=               1
 Spin= Alpha
 Occup=   -0.00000
   1    0.0014550961784569
   2     0.001586692586089
   3     0.004081667682731
   4     0.006815358665942
   5      0.01362134661979
   6     0.024943321937772
   7     0.048105928896488
   8     0.091099489377975
   9      0.16970903910213
  10      0.27953673535807
  11      0.34014643235881
  12      0.18065674261537
  13     -0.15071978895089
  14     -0.26647595998824
  15      -0.0949116274597
  16    -0.028313909456905
  17    -0.011112801652743
  18    0.0035119276001319
  19    0.0014443677414507
  20    4.1217794775986e-05
  21    -3.9403359909878e-06
  22    5.6694753511484e-07
  23    -3.8497015451212e-08
  24    -3.5873840326011e-07
  25    -4.4526629951477e-08
  26    -1.0565619303627e-06
  27    3.0938502025111e-07
  28    -5.02253064263e-07
  29    -2.9828567022622e-06
  30    8.7799699810871e-07
  31    -1.4124755317625e-06
  32    -9.4429096563243e-06
  33    2.7970926413607e-06
  34    -4.4503591473159e-06
  35    -2.7860956490821e-05
  36    8.3168119067348e-06
  37    -1.3053529541602e-05
  38    -8.3251249403022e-05
  39    2.5211355040513e-05
  40    -3.8572590075681e-05
  41    -0.0002507821689793
  42    7.7336483962568e-05
  43    -0.0001145218545368
  44    -0.00075701177383761
  45    0.00024230929942062
  46    -0.00033504429237639
  47    -0.0022114396915257
  48    0.0007467099910028
  49    -0.00093202392248931
  50    -0.0058786333114278
  51    0.0021963592123198
  52    -0.0022235052764289
  53    -0.012704978545142
  54    0.0053769291004729
  55    -0.0040482038522707
  56    -0.018324347313669
  57    0.0085364955979461
  58    -0.0048994669031656
  59    -0.0091198836980643
  60    -0.0044481038203407
  61    -0.012894984593349
  62     0.014534852335052
  63    -0.046843587756083
  64    -0.044298118422144
  65     0.019705749774145
  66    -0.054683749390254
  67    -0.049445129879792
  68    0.0056317164207357
  69    -0.014047375869978
  70    -0.012178140346201
  71    0.00076040750863788
  72    0.00072484006615454
  73    0.0015898471973754
  74    0.00017491918841677
  75    0.00035591148873498
  76    0.00059533853735967
  77    6.6363512070379e-06
  78    2.2889117458092e-05
  79    2.126955660064e-05
  80    2.2434212529241e-06
  81    -6.9872221963029e-07
  82    -4.451681370056e-06
  83    4.9514910829704e-08
  84    -5.8537525842804e-08
  85    -3.5728598493921e-07
  86    -1.3875344611552e-09
  87    -4.688570139784e-09
  88    -2.5657424219788e-07
  89    2.6179213788615e-10
  90    5.5937006882684e-09
  91    -5.0964236641873e-08
  92    2.5834744041194e-06
  93    -2.1556633424981e-07
  94    -9.3241288718644e-07
  95     -4.4651207603e-09
  96    -1.5126680817097e-07
  97    7.758930955824e-06
  98    -6.474823083807e-07
  99    -2.8010460865326e-06
 100    -1.3414116144983e-08
 101    -4.5443725987336e-07
 102    3.9284903745539e-05
 103    -3.2753795118001e-06
 104    -1.4162269225125e-05
 105    -6.7822844882951e-08
 106    -2.2976555324379e-06
 107    0.00016424901957045
 108    -1.3693521456638e-05
 109    -5.9210985648719e-05
 110    -2.8356862246546e-07
 111    -9.6065370319449e-06
 112    0.00058465490230842
 113    -4.8727948113506e-05
 114    -0.00021073478704277
 115    -1.0091594792794e-06
 116    -3.4187235014552e-05
 117    0.0015200757527289
 118    -0.00012673253858396
 119    -0.00054797477192847
 120    -2.6243799787961e-06
 121    -8.8905523689195e-05
 122    0.0025710657929049
 123    -0.00021431234150203
 124    -0.00092718339127614
 125    -4.440147652546e-06
 126    -0.00015041954503177
 127    0.0023900398929421
 128    -0.00019787334520368
 129    -0.00086229005430104
 130    -4.1260770196899e-06
 131    -0.00013980859418375
 132     0.001210430259348
 133    -9.5493885430458e-05
 134    -0.00043843143350487
 135    -2.0876584409518e-06
 136    -7.0849026961836e-05
 137    0.00067828563772507
 138    -4.851194018882e-05
 139    -0.00024775818143477
 140    -1.1685249484255e-06
 141    -3.977110688506e-05
 142    0.00032938069874913
 143    -2.3321020819904e-05
 144    -0.00012045872904884
 145    -5.6749096260873e-07
 146    -1.9321337109521e-05
 147    3.795046724506e-05
 148    -2.6916645912293e-06
 149    -1.3496471181037e-05
 150    -6.4293942008163e-08
 151    -2.1897587636618e-06
 152    9.370168580214e-07
 153    -1.4521008956292e-07
 154    1.0961797486965e-07