[Molden Format]
made by pyscf v[1.6]
[Atoms] (AU)
Pb   1   82     0.00000000000000     0.00000000000000     0.00000000000000
Po   2   84     0.00000000000000     0.00000000000000     6.22664758044188
[GTO]
1 0
 s    1 1.00
            53286308.1                   1
 s    1 1.00
            12563091.6                   1
 s    1 1.00
            3649632.71                   1
 s    1 1.00
            1155667.46                   1
 s    1 1.00
            393662.372                   1
 s    1 1.00
            141880.712                   1
 s    1 1.00
            53715.8205                   1
 s    1 1.00
            21155.9239                   1
 s    1 1.00
            8592.02151                   1
 s    1 1.00
            3587.69911                   1
 s    1 1.00
            1543.12835                   1
 s    1 1.00
            682.751108                   1
 s    1 1.00
            310.809922                   1
 s    1 1.00
            147.336687                   1
 s    1 1.00
            72.0274889                   1
 s    1 1.00
            36.0688738                   1
 s    1 1.00
             17.914637                   1
 s    1 1.00
            8.78523935                   1
 s    1 1.00
            4.25459609                   1
 s    1 1.00
            1.87416029                   1
 s    1 1.00
            0.78526814                   1
 s    1 1.00
            0.29369027                   1
 s    1 1.00
            0.10014454                   1
 s    1 1.00
            0.04005781                   1
 s    1 1.00
            0.01602312                   1
 p    1 1.00
            18424232.6                   1
 p    1 1.00
            3401762.55                   1
 p    1 1.00
            789635.475                   1
 p    1 1.00
            211624.228                   1
 p    1 1.00
            63404.1081                   1
 p    1 1.00
             20924.975                   1
 p    1 1.00
            7562.84898                   1
 p    1 1.00
            2974.21901                   1
 p    1 1.00
            1257.78781                   1
 p    1 1.00
            563.372044                   1
 p    1 1.00
            263.909129                   1
 p    1 1.00
            127.784575                   1
 p    1 1.00
            61.9403223                   1
 p    1 1.00
            31.2051312                   1
 p    1 1.00
            15.5810598                   1
 p    1 1.00
            7.65220691                   1
 p    1 1.00
            3.69552968                   1
 p    1 1.00
            1.63409775                   1
 p    1 1.00
            0.69245606                   1
 p    1 1.00
            0.18951736                   1
 p    1 1.00
            0.05915108                   1
 p    1 1.00
            0.02366043                   1
 d    1 1.00
            8592.02151                   1
 d    1 1.00
            3587.69911                   1
 d    1 1.00
            1543.12835                   1
 d    1 1.00
            682.751108                   1
 d    1 1.00
            310.809922                   1
 d    1 1.00
            147.336687                   1
 d    1 1.00
            72.0274889                   1
 d    1 1.00
            36.0688738                   1
 d    1 1.00
             17.914637                   1
 d    1 1.00
            8.78523935                   1
 d    1 1.00
            4.25459609                   1
 d    1 1.00
            1.87416029                   1
 d    1 1.00
            0.78526814                   1
 d    1 1.00
            0.29369027                   1
 d    1 1.00
             0.1174761                   1
 d    1 1.00
            0.04699044                   1
 f    1 1.00
            563.372044                   1
 f    1 1.00
            263.909129                   1
 f    1 1.00
            127.784575                   1
 f    1 1.00
            61.9403223                   1
 f    1 1.00
            31.2051312                   1
 f    1 1.00
            15.5810598                   1
 f    1 1.00
            7.65220691                   1
 f    1 1.00
            3.69552968                   1
 f    1 1.00
            1.63409775                   1
 f    1 1.00
             0.6536391                   1
 f    1 1.00
            0.26145564                   1
 f    1 1.00
            0.10458226                   1
 g    1 1.00
              1.536795                   1
 g    1 1.00
              0.614718                   1
 g    1 1.00
              0.245887                   1
 g    1 1.00
              0.098355                   1

2 0
 s    1 1.00
            54498862.1                   1
 s    1 1.00
            13096120.9                   1
 s    1 1.00
            3878386.94                   1
 s    1 1.00
            1248126.68                   1
 s    1 1.00
             430885.75                   1
 s    1 1.00
            156915.928                   1
 s    1 1.00
            59878.6489                   1
 s    1 1.00
              23713.98                   1
 s    1 1.00
            9664.09077                   1
 s    1 1.00
             4042.6813                   1
 s    1 1.00
            1740.53627                   1
 s    1 1.00
            771.429054                   1
 s    1 1.00
             350.90462                   1
 s    1 1.00
            166.226015                   1
 s    1 1.00
            81.2310139                   1
 s    1 1.00
             40.699368                   1
 s    1 1.00
            20.3490525                   1
 s    1 1.00
             10.048661                   1
 s    1 1.00
             4.9195767                   1
 s    1 1.00
            2.21311774                   1
 s    1 1.00
            0.96083709                   1
 s    1 1.00
            0.37253482                   1
 s    1 1.00
            0.13185443                   1
 s    1 1.00
            0.05274177                   1
 s    1 1.00
             0.0210967                   1
 p    1 1.00
            20045996.7                   1
 p    1 1.00
             3786356.9                   1
 p    1 1.00
            890330.888                   1
 p    1 1.00
             240434.87                   1
 p    1 1.00
            72292.2646                   1
 p    1 1.00
            23852.7825                   1
 p    1 1.00
            8590.61706                   1
 p    1 1.00
            3360.33711                   1
 p    1 1.00
            1413.27346                   1
 p    1 1.00
            630.180015                   1
 p    1 1.00
            294.176966                   1
 p    1 1.00
            142.106857                   1
 p    1 1.00
            68.8791995                   1
 p    1 1.00
            34.7394672                   1
 p    1 1.00
            17.3925236                   1
 p    1 1.00
            8.58678154                   1
 p    1 1.00
            4.18303674                   1
 p    1 1.00
            1.88215634                   1
 p    1 1.00
            0.82550127                   1
 p    1 1.00
            0.25531368                   1
 p    1 1.00
            0.08323531                   1
 p    1 1.00
            0.03329412                   1
 d    1 1.00
            9664.09077                   1
 d    1 1.00
             4042.6813                   1
 d    1 1.00
            1740.53627                   1
 d    1 1.00
            771.429054                   1
 d    1 1.00
             350.90462                   1
 d    1 1.00
            166.226015                   1
 d    1 1.00
            81.2310139                   1
 d    1 1.00
             40.699368                   1
 d    1 1.00
            20.3490525                   1
 d    1 1.00
             10.048661                   1
 d    1 1.00
             4.9195767                   1
 d    1 1.00
            2.21311774                   1
 d    1 1.00
            0.96083709                   1
 d    1 1.00
            0.37253482                   1
 d    1 1.00
            0.14901392                   1
 d    1 1.00
            0.05960556                   1
 f    1 1.00
            630.180015                   1
 f    1 1.00
            294.176966                   1
 f    1 1.00
            142.106857                   1
 f    1 1.00
            68.8791995                   1
 f    1 1.00
            34.7394672                   1
 f    1 1.00
            17.3925236                   1
 f    1 1.00
            8.58678154                   1
 f    1 1.00
            4.18303674                   1
 f    1 1.00
            1.88215634                   1
 f    1 1.00
            0.75286253                   1
 f    1 1.00
            0.30114501                   1
 f    1 1.00
              0.120458                   1
 g    1 1.00
              1.767416                   1
 g    1 1.00
             0.7069664                   1
 g    1 1.00
             0.2827865                   1
 g    1 1.00
             0.1131146                   1

[5d]
[9g]


[MO]
 Sym= A
 Ene=               0
 Spin= Alpha
 Occup=    0.00000
   1    -1.8830053299136e-15
   2    -7.6277058562737e-15
   3    -2.6368346348531e-15
   4    -2.2154550314162e-14
   5    -5.4410058106159e-14
   6    1.0273526841913e-13
   7    -8.2590313044028e-13
   8    2.2866324963753e-12
   9    -8.5200400883921e-12
  10    2.300263447747e-11
  11    -6.6045690108833e-11
  12    1.5783608376711e-10
  13    -3.2606095053837e-10
  14    5.2319498764736e-10
  15    -4.5029002722996e-10
  16    -1.7122311797929e-10
  17    1.0648033787958e-09
  18    -1.5346331132784e-09
  19    1.1517608930237e-09
  20    -3.3224512625512e-10
  21    -2.3874390894855e-10
  22    -6.8187357478072e-11
  23    2.7033428761761e-09
  24    -5.7230296780345e-09
  25    1.3448869699443e-09
  26    9.735078017901e-16
  27    5.8701420906882e-15
  28    -1.8605231061095e-17
  29    2.180198234127e-14
  30    1.2166738592874e-13
  31    -7.592192036344e-15
  32    -2.2117238439915e-14
  33    -1.1540151650055e-13
  34    1.8875261730766e-14
  35    2.6576211644381e-13
  36    1.4645755357527e-12
  37    -1.4217630661526e-13
  38    -5.1792208810249e-13
  39    -2.7357856494236e-12
  40    4.8633244480478e-13
  41    3.0081386546039e-12
  42    1.6284285829713e-11
  43    -2.3839565117317e-12
  44    -7.499061138183e-12
  45    -3.9208873420587e-11
  46    8.1858985312367e-12
  47    2.9897996572975e-11
  48    1.5836231468426e-10
  49    -3.0980527085311e-11
  50    -7.8178164391071e-11
  51    -4.0287070151059e-10
  52    9.124131372941e-11
  53    2.1659408248971e-10
  54    1.1145683825847e-09
  55    -2.5713675452983e-10
  56    -5.0189818126018e-10
  57    -2.5212247081696e-09
  58    5.7265814922832e-10
  59    9.3485738630539e-10
  60    4.5476884042902e-09
  61    -1.0487539381291e-09
  62    -1.516157989799e-09
  63    -6.9599287730671e-09
  64    1.5545194237291e-09
  65    1.9685114410028e-09
  66    8.0351509738917e-09
  67    -1.6726390357687e-09
  68    -1.8730671582291e-09
  69    -5.7613230582468e-09
  70    1.293916522848e-09
  71    1.3372842401759e-09
  72    1.3098773627656e-09
  73    -7.7642321801137e-10
  74    -8.8303863625294e-10
  75    1.688853493422e-09
  76    2.849223259468e-10
  77    6.1927294541054e-10
  78    -2.559040817332e-09
  79    1.4570713803395e-10
  80    -1.1951040392517e-10
  81    3.5469496184784e-09
  82    -4.5457886582342e-10
  83    -4.1929036917665e-10
  84    -4.4216577236187e-09
  85    1.6866254559666e-09
  86    9.6615828254534e-09
  87    4.2116112786057e-08
  88    -2.9519070551468e-09
  89    5.5189764247539e-09
  90    2.6251970088609e-08
  91    2.8098672923721e-10
  92    6.713206743107e-13
  93    4.2779851137442e-12
  94    2.3010478277891e-11
  95    5.9222113995408e-14
  96    8.9696835595759e-15
  97    -2.2324387547447e-12
  98    -1.8053004814598e-11
  99    -9.6633138593145e-11
 100    -3.1684502030684e-13
 101    -4.5319380042495e-14
 102    6.0898922136391e-12
 103    5.6843160514623e-11
 104    3.0325518373729e-10
 105    9.5618073190061e-13
 106    1.4768762175301e-13
 107    -1.5287819146453e-11
 108    -1.5467724976568e-10
 109    -8.1843024565457e-10
 110    -3.6429629921937e-12
 111    -5.8276644627428e-13
 112    3.7947486891128e-11
 113    3.9907950623298e-10
 114    2.0990515189123e-09
 115    8.2606920078226e-12
 116    1.338627262694e-12
 117    -8.3819193256123e-11
 118    -8.4703086318166e-10
 119    -4.3652096101696e-09
 120    -2.9731192316811e-11
 121    -4.8638982364817e-12
 122    1.6682138732348e-10
 123    1.553844783086e-09
 124    7.8251601412795e-09
 125    5.6381425546102e-11
 126    9.2343722195966e-12
 127    -2.6219520302099e-10
 128    -2.0886929621117e-09
 129    -9.9055923814796e-09
 130    -1.2793398428054e-10
 131    -2.0996152785502e-11
 132    3.2332964387738e-10
 133    2.1257154046301e-09
 134    8.8394582908671e-09
 135    2.2337472382771e-10
 136    3.671400994136e-11
 137    -2.9229495203497e-10
 138    -1.7162331047803e-09
 139    -5.2713714516638e-09
 140    -2.7916471062556e-10
 141    -4.5910457186733e-11
 142    1.0289678717947e-10
 143    7.8296899040177e-10
 144    -6.0954353167379e-10
 145    3.3076800873502e-10
 146    5.4362687650199e-11
 147    2.0319912613049e-10
 148    1.1291455857066e-10
 149    5.5309565744826e-09
 150    -3.385575993728e-10
 151    -5.5624449496668e-11
 152    -5.19496508532e-10
 153    -2.7247561899891e-11
 154    -4.3037673983289e-09
 155    1.5036755665385e-10
 156    2.4797353122021e-11
 157    1.1168667022712e-09
 158    -3.4621194331563e-10
 159    2.5038154561122e-09
 160    -4.1842575582122e-11
 161    -7.0619570100058e-12
 162    -7.8914251652921e-10
 163    2.9454842094814e-09
 164    5.3016300960487e-09
 165    6.228722148904e-11
 166    1.0574847782299e-11
 167    -2.0081239570158e-10
 168    7.7116710072381e-09
 169    3.6632943781814e-08
 170    5.2664161552741e-10
 171    8.6723909740085e-11
 172    1.1095475112947e-11
 173    -2.5019325307236e-11
 174    -1.4087886382601e-10
 175    -1.235108925277e-13
 176    -1.8511935354404e-14
 177    -5.0627182683029e-15
 178    -5.7033927463595e-15
 179    -4.371814595505e-11
 180    9.2628725874396e-11
 181    5.2150763781931e-10
 182    5.6916359628398e-13
 183    8.6444810455883e-14
 184    1.657262252273e-15
 185    8.6636440138666e-15
 186    1.1529030209688e-10
 187    -2.1666515851903e-10
 188    -1.225092396096e-09
 189    -1.381641058869e-12
 190    -1.4926245566745e-13
 191    6.1759052420319e-14
 192    -2.2123559914862e-14
 193    -2.5317359102047e-10
 194    4.0183311365395e-10
 195    2.2712251968937e-09
 196    4.3233491028119e-12
 197    5.8509239201122e-13
 198    -8.4514431111545e-14
 199    3.3211302464492e-14
 200    4.5981681134536e-10
 201    -5.6358600534827e-10
 202    -3.2334483200976e-09
 203    -6.3227086982536e-12
 204    -9.5584753599972e-13
 205    2.8631408250348e-14
 206    -1.6381457410463e-15
 207    -6.5919058169535e-10
 208    5.980315981393e-10
 209    3.4454751770118e-09
 210    1.4808839809033e-11
 211    2.4137824606728e-12
 212    3.2043457529768e-14
 213    -7.1229413163788e-14
 214    7.9353552821166e-10
 215    -4.4592928495448e-10
 216    -2.7306147109483e-09
 217    -1.4399556197234e-11
 218    -2.3754318451767e-12
 219    -3.9124607785431e-14
 220    1.4011989986186e-13
 221    -7.2820962806197e-10
 222    2.2298583597004e-10
 223    1.5450628689193e-09
 224    1.700098073458e-11
 225    2.8218233004172e-12
 226    2.1492575023199e-14
 227    -2.1575359747497e-13
 228    5.0692843720216e-10
 229    -5.3925243375101e-11
 230    -5.6363102664659e-10
 231    -2.7943392325523e-11
 232    -4.6511878450831e-12
 233    -1.1583935068971e-14
 234    3.7594746146474e-13
 235    -3.6533440139483e-10
 236    -3.2159341209566e-11
 237    4.6130116494311e-10
 238    6.0597289814898e-12
 239    1.1212740681146e-12
 240    -6.982878711136e-15
 241    -7.7060860618103e-13
 242    3.3270446660597e-10
 243    -2.233836756485e-10
 244    -2.0323852491186e-09
 245    -6.2722520202625e-11
 246    -1.0576119909473e-11
 247    3.0484264185345e-14
 248    1.6229098454251e-12
 249    -1.2841865892871e-10
 250    2.9199226283134e-09
 251    1.0705892413374e-08
 252    3.8100283316478e-10
 253    6.3350178883048e-11
 254    -7.6606502327017e-14
 255    -3.1820480268134e-12
 256    4.249298834361e-11
 257    -2.5232623814981e-12
 258    -1.9154900908795e-10
 259    1.7894042529101e-11
 260     2.91820937904e-12
 261    3.3295936264925e-15
 262    2.2652533029864e-13
 263    4.3468431885789e-15
 264    -9.1117962283129e-16
 265    2.2192555613135e-11
 266    -5.3689594853824e-12
 267    5.5071634535721e-10
 268    -8.3096510872528e-11
 269    -1.3581930289898e-11
 270    -1.5193690700309e-14
 271    -7.2859358448315e-13
 272    -1.1552418148395e-14
 273    -4.0234159652367e-15
 274    -2.0311835166262e-10
 275    1.2947808921348e-10
 276    -6.6931317425265e-10
 277    1.8728781943974e-10
 278    3.0626616070343e-11
 279    3.5809211678843e-14
 280    1.760592334246e-12
 281    2.0408772740322e-14
 282    6.1502723121351e-15
 283    1.8435353041918e-10
 284     -2.5860405114e-10
 285    -1.7470316114527e-09
 286    2.9008339746102e-11
 287    5.3039396231225e-12
 288    -1.1134517799827e-13
 289    -4.6658757422963e-12
 290    -5.0799031346505e-15
 291    -3.8733883185011e-15
 292    1.9874070953323e-05
 293    2.0448940293735e-05
 294    5.3414881721882e-05
 295    8.6474309821925e-05
 296    0.00017272020464516
 297    0.00031263475030991
 298    0.00060411807513823
 299    0.0011546243047135
 300    0.0022200383211808
 301    0.0039316936099642
 302    0.0054558615243098
 303    0.0027632647113977
 304    -0.0088091979854266
 305     -0.01558925667241
 306    -0.006362325257925
 307    -0.0033495774918574
 308    -0.0015784644046522
 309    0.00039795988297309
 310    0.00023179426781085
 311    -4.5314332274019e-06
 312    -6.2567394018576e-06
 313    -1.2307395334949e-07
 314    -2.7330867371464e-08
 315    9.5117051034918e-09
 316      -2.035310041e-09
 317    -4.7982301160017e-06
 318    -2.6678370034753e-05
 319    -1.9890509889152e-07
 320    -1.3131197803669e-05
 321    -7.3009715615531e-05
 322    -5.4394381954695e-07
 323    -4.1118280790287e-05
 324    -0.0002286172746555
 325    -1.7017992249334e-06
 326    -0.00011924903836039
 327    -0.00066301926934591
 328    -4.9300137103451e-06
 329    -0.00035066090898596
 330    -0.0019496360042952
 331    -1.4468313904894e-05
 332    -0.0010393739357617
 333    -0.0057787150275412
 334    -4.2771686814893e-05
 335    -0.0030966717623109
 336    -0.017216344198059
 337    -0.00012674758109969
 338    -0.0089762325197447
 339    -0.049902132334371
 340    -0.00036438914904345
 341    -0.023846528819243
 342     -0.13255868585113
 343    -0.00095186833036654
 344     -0.05209037186961
 345     -0.28952176409752
 346    -0.0020293389208915
 347      -0.0775928251144
 348     -0.43120920851097
 349    -0.0029509932637284
 350    -0.046405666028261
 351     -0.25840150313534
 352    -0.0024108049286038
 353       0.0444321696757
 354      0.24435817404977
 355    -0.001571428083666
 356     0.072562710909586
 357      0.40007255088976
 358    -0.0012954428745634
 359     0.021197730839934
 360      0.11690789094675
 361    -0.00020124543599995
 362    -4.8403549305872e-05
 363    -0.00018001023514306
 364    0.00035515293766838
 365    -0.0003167077021569
 366    -0.0017268147821101
 367    0.00012001741393182
 368    -4.0493523152456e-05
 369    -0.00024240151456501
 370    3.1905397591074e-06
 371    -4.5809244274787e-06
 372    -3.489326944795e-05
 373    -9.6956765543607e-07
 374    -1.5065494497629e-07
 375    -1.1529599770796e-06
 376    -5.8145887961242e-08
 377    4.2531960826406e-08
 378    2.2730139931437e-07
 379    -1.7182307604344e-11
 380    -2.080470143697e-08
 381    -9.9728395208455e-08
 382    -2.0351173074001e-09
 383    -3.0162168739017e-07
 384    -4.5160111862033e-07
 385    -5.5986033366924e-06
 386    -9.7652995126947e-07
 387    -1.6027802133109e-07
 388    -8.8411876361008e-07
 389    -1.3242146573651e-06
 390    -1.6415526997662e-05
 391    -2.863167858037e-06
 392    -4.6993217114043e-07
 393    -4.4219082092473e-06
 394    -6.6182797317138e-06
 395    -8.2057111651525e-05
 396    -1.4313502096612e-05
 397    -2.3492776248533e-06
 398    -1.8443886003809e-05
 399    -2.7609938585334e-05
 400    -0.00034228531975805
 401    -5.9699880088224e-05
 402    -9.7985519881682e-06
 403    -6.6597855282018e-05
 404    -9.9778379715744e-05
 405    -0.0012361427716024
 406    -0.00021546638443731
 407    -3.5364543500294e-05
 408    -0.00017798289169281
 409    -0.00026681175289477
 410    -0.0033043350981415
 411    -0.00057576446789708
 412    -9.4500357000237e-05
 413    -0.00031404351812181
 414    -0.0004708888870574
 415    -0.0058319514336649
 416    -0.0010163057367282
 417    -0.00016680646796184
 418    -0.00030428424745791
 419    -0.00045358843804576
 420    -0.005647250013294
 421    -0.00098988983184537
 422    -0.0001624702211131
 423    -0.00013915341776866
 424    -0.00019491682335922
 425    -0.0025635873497314
 426    -0.00047548919329956
 427    -7.8039307268603e-05
 428    -5.1085585919384e-05
 429    -5.4740889242262e-05
 430    -0.00091666949686858
 431    -0.00020563542255595
 432    -3.3746458632759e-05
 433    -2.3930587914042e-05
 434    -2.3566501335994e-05
 435    -0.00042700942338496
 436    -0.00010038728718557
 437    -1.6474030645906e-05
 438    -3.0868515837346e-06
 439    -2.9219803270345e-06
 440    -5.459765801923e-05
 441    -1.3016725276881e-05
 442    -2.1361437976353e-06
 443    -1.47748484565e-07
 444    -2.0925082287956e-07
 445    -2.2595857200766e-06
 446    -2.4227869451713e-07
 447    -3.984154672823e-08
 448    -2.8583543759699e-08
 449    6.0896404520876e-10
 450    -3.0071890507533e-07
 451    -7.8108465961885e-08
 452    -1.2838599006804e-08
 453    -4.3346966892612e-09
 454    -1.561124232372e-08
 455    -8.9939478763284e-08
 456    7.169079256417e-09
 457    1.1738889700542e-09
 458    1.5580464200138e-09
 459    1.8413159145285e-08
 460    8.7583881620579e-08
 461    -2.2345620738205e-09
 462    -3.6711364521848e-10
 463    -5.1726693546407e-09
 464    1.4655483777339e-08
 465    1.7383851643634e-08
 466    -5.0318931657364e-09
 467    -8.3003061632394e-10
 468    -3.1298292966801e-12
 469    -1.2311564445527e-10
 470    -1.8788944154241e-08
 471    9.1553138293331e-08
 472    2.635470411834e-07
 473    -1.9305811280456e-08
 474    -3.1844761490543e-09
 475    -1.1954428665251e-11
 476    -4.698275402495e-10
 477    -8.3807889144727e-08
 478    6.3145952853477e-07
 479    2.2167003127273e-06
 480    -1.0312790233242e-07
 481    -1.7009520082625e-08
 482    -6.2488214480139e-11
 483    -2.4700160628263e-09
 484    -2.8052906885684e-07
 485    2.4716218797812e-06
 486    9.4018359526521e-06
 487    -3.4547722695607e-07
 488    -5.6980962240587e-08
 489    -2.0991803957392e-10
 490    -8.2549880986226e-09
 491    -6.8806834249649e-07
 492    5.8307981273036e-06
 493    2.1647298856237e-05
 494    -8.6416230423655e-07
 495    -1.4252364219165e-07
 496    -5.1725205100143e-10
 497    -2.0455774222929e-08
 498    -1.1450157671458e-06
 499    8.8226106618249e-06
 500    3.0709829615486e-05
 501    -1.4810778960365e-06
 502    -2.4426409398544e-07
 503    -8.8988870327353e-10
 504    -3.4904555676158e-08
 505    -1.2032986020293e-06
 506    9.3557164837009e-06
 507    3.2350459284978e-05
 508    -1.5866032221178e-06
 509    -2.6166925952251e-07
 510    -9.474991041075e-10
 511    -3.7426111188177e-08
 512    -7.7102293216692e-07
 513    5.8239553292234e-06
 514    2.0064438890947e-05
 515    -9.968741585382e-07
 516    -1.6440489732339e-07
 517    -5.9597992405446e-10
 518    -2.3407106274647e-08
 519    -2.1611112610369e-07
 520    1.6294291930958e-06
 521    5.6084280011963e-06
 522    -2.7576800308056e-07
 523    -4.5482717975036e-08
 524    -1.658012789849e-10
 525    -6.5557570427891e-09
 526    -7.5680478081136e-09
 527    2.7673898085951e-08
 528    3.0271871597704e-08
 529    -8.7675036459744e-09
 530    -1.4458676412418e-09
 531    -5.5047562469286e-12
 532    -2.0597869342407e-10
 533    -1.6567815674977e-09
 534    2.0440640796068e-08
 535    7.5877583656459e-08
 536    -3.3890208467914e-09
 537    -5.5894339407132e-10
 538    -1.6770305758332e-12
 539    -7.0863589345063e-11
 540    1.6275379249343e-09
 541    -1.5227060705323e-08
 542    -6.2839477056837e-08
 543    1.2199716361607e-09
 544    2.0190994341549e-10
 545    6.3234916918896e-13
 546    2.6679594004977e-11
 547    -3.535084879731e-09
 548    -1.6920381703388e-09
 549    -5.1227825878912e-08
 550    -1.0312135952486e-08
 551    -1.6920858919541e-09
 552    1.5614208571956e-13
 553    6.183974537866e-12
 554    2.7902888357836e-17
 555    -7.199352407307e-16
 556    1.1214714721634e-09
 557    -2.8908017585483e-10
 558    1.5579775653047e-08
 559    4.3892450875984e-09
 560    7.200597221849e-10
 561    -5.9042003803198e-14
 562    -2.4016659997206e-12
 563    6.3955038914938e-16
 564    1.4642929959856e-15
 565    -5.0445117522175e-10
 566    -6.4999267390301e-10
 567    -1.3438604328618e-08
 568    -2.2557463144486e-09
 569    -3.7006362086029e-10
 570    4.9010308734675e-14
 571    2.0239298488099e-12
 572    -1.1430839665326e-15
 573    -1.9836425481762e-15
 574    -4.8183679973506e-10
 575    3.1988437781979e-09
 576    1.8145757480323e-08
 577    7.3405865137126e-10
 578    1.1990747014112e-10
 579    -7.5599219655364e-14
 580    -3.1078305541542e-12
 581    1.4196019238152e-16
 582    -3.4752417642542e-15
 Sym= A
 Ene=               1
 Spin= Alpha
 Occup=    0.00000
   1    1.1728001211112e-13
   2    4.7865683481241e-14
   3    7.010982937261e-13
   4    -1.7432254505972e-12
   5    1.0723633367043e-11
   6    -3.5800493274855e-11
   7    1.3404551257052e-10
   8    -4.0875965074082e-10
   9    1.2403459192555e-09
  10    -3.3257740214033e-09
  11    8.3000293131363e-09
  12    -1.787021570529e-08
  13    3.3083490007127e-08
  14    -5.0512070869023e-08
  15    5.811258299668e-08
  16    -4.4721287076558e-08
  17    1.6990117722911e-08
  18    7.1987564660698e-09
  19    -1.6509011847905e-08
  20    1.255490377089e-08
  21    -4.158148188081e-09
  22    1.4435152978332e-08
  23    -7.6945853865492e-08
  24    -1.5782263527906e-07
  25    -5.6676434366544e-08
  26    1.2888441652803e-16
  27    1.2365966928652e-16
  28    -6.7290918265897e-16
  29    -1.6807092961443e-17
  30    -6.6558224538531e-17
  31    1.7848501609909e-13
  32    7.8510120084807e-16
  33    1.2694286261065e-15
  34    -1.0183950964333e-12
  35    -9.5868561060495e-16
  36    -1.6039963263671e-15
  37    7.302367236263e-12
  38    1.3884163244479e-14
  39    1.3559720985907e-14
  40    -3.5005003484276e-11
  41    -4.1120753454681e-14
  42    -1.3823502277095e-14
  43    1.6323605458479e-10
  44    2.3333632471284e-13
  45    1.1824375801586e-13
  46    -6.3053118125537e-10
  47    -7.2661881914909e-13
  48    2.1048835649348e-14
  49    2.2000913193129e-09
  50    2.9698826610128e-12
  51    7.0739737718233e-13
  52    -6.3219955118368e-09
  53    -8.3417598322136e-12
  54    1.312438751088e-12
  55    1.5347723696437e-08
  56    2.5209558364834e-11
  57    -1.9466369393503e-13
  58    -3.0050100983719e-08
  59    -6.088833548232e-11
  60    9.3630026820082e-12
  61    4.7462306979354e-08
  62    1.3757219016558e-10
  63    -3.1947487888754e-11
  64    -6.2814435001677e-08
  65    -2.7272720836049e-10
  66    4.3944100089237e-11
  67    6.5852640955491e-08
  68    4.3686618728803e-10
  69    -6.0171847662723e-11
  70    -5.2787761912024e-08
  71    -5.7573283839312e-10
  72    5.9365408890066e-11
  73    3.3247199718194e-08
  74    6.2052314229646e-10
  75    5.6489084141336e-11
  76    -1.4626992521589e-08
  77    -5.644849807371e-10
  78    -2.1629974999039e-10
  79    8.6494833438795e-10
  80    3.9571374331297e-10
  81    1.8288589938778e-10
  82    8.1559054468273e-09
  83    -1.9476387875418e-10
  84    -9.7269970018745e-12
  85    -4.2166442377356e-08
  86    -1.0684276755805e-09
  87     -2.6148230263e-09
  88    -1.0772472393585e-07
  89    -3.9891629041145e-10
  90    -1.2347062217614e-09
  91    -5.4350868653719e-08
  92    -9.9074027382631e-12
  93    -7.3725190374636e-14
  94    2.9436692358935e-14
  95    9.8960453126059e-14
  96    -3.6247441123678e-14
  97    3.2859772302534e-11
  98    3.5123146980182e-13
  99    -2.0258432442885e-13
 100    -5.3117754469674e-13
 101    1.9599630999707e-13
 102    -9.1024018410981e-11
 103    -1.2009618747532e-12
 104    7.6946096240612e-13
 105    1.5830225684107e-12
 106    -5.8242976883712e-13
 107    2.4825758494687e-10
 108    3.8971883628153e-12
 109    -3.1697339975619e-12
 110    -6.0050444208764e-12
 111    2.2026423111508e-12
 112    -6.6122638918857e-10
 113    -1.1280678386732e-11
 114     9.37775751944e-12
 115    1.3584644101698e-11
 116    -4.9844013103181e-12
 117    1.6505264466418e-09
 118    3.2347560254604e-11
 119    -3.2675213759658e-11
 120    -4.8845870655308e-11
 121    1.7884559720772e-11
 122    -3.4519419210847e-09
 123    -7.6849495725793e-11
 124    7.8091251615807e-11
 125    9.2616815087386e-11
 126    -3.3930046954541e-11
 127    5.8680999127943e-09
 128    1.6112471070782e-10
 129    -1.7339303702324e-10
 130    -2.1013829875128e-10
 131    7.6952728637859e-11
 132    -7.9559811962803e-09
 133    -2.8114613372214e-10
 134    2.9790611973848e-10
 135    3.6690613815084e-10
 136    -1.3435096045332e-10
 137    8.277259839274e-09
 138    4.0382768795272e-10
 139    -3.8262507666173e-10
 140    -4.5854033473539e-10
 141    1.6799305710936e-10
 142    -5.7262138730803e-09
 143    -4.6977483932885e-10
 144    3.9370534139401e-10
 145    5.4324397930498e-10
 146    -1.9902349615041e-10
 147    1.2564086627491e-09
 148    4.6457710746591e-10
 149    -3.3022462285301e-10