From PySCF
GAUSSIAN              5 MOL ORBITALS     84 PRIMITIVES        3 NUCLEI
  O    1    (CENTRE  1)   0.00000000  0.00000000  0.22365098  CHARGE = 8.0
  H    2    (CENTRE  2)   0.00000000  1.43843496 -0.88765160  CHARGE = 1.0
  H    3    (CENTRE  3)   0.00000000 -1.43843496 -0.88765160  CHARGE = 1.0
CENTRE ASSIGNMENTS    1  1  1  1  1  1  1  1  1  1  1  1  1  1  1  1  1  1  1  1
CENTRE ASSIGNMENTS    1  1  1  1  1  1  1  1  1  1  1  1  1  1  1  1  1  1  1  1
CENTRE ASSIGNMENTS    1  1  1  1  1  1  1  1  1  1  2  2  2  2  2  2  2  2  2  2
CENTRE ASSIGNMENTS    2  2  2  2  2  2  2  3  3  3  3  3  3  3  3  3  3  3  3  3
CENTRE ASSIGNMENTS    3  3  3  3
TYPE ASSIGNMENTS      1  1  1  1  1  1  1  1  1  1  2  3  4  2  3  4  2  3  4  2
TYPE ASSIGNMENTS      3  4  2  3  4  2  3  4  5  8  9  6 10  7  5  8  9  6 10  7
TYPE ASSIGNMENTS     11 14 15 17 20 18 12 16 19 13  1  1  1  1  1  2  3  4  2  3
TYPE ASSIGNMENTS      4  5  8  9  6 10  7  1  1  1  1  1  2  3  4  2  3  4  5  8
TYPE ASSIGNMENTS      9  6 10  7
EXPONENTS  1.2870845E+04 1.9522478E+03 4.5402969E+02 1.3028373E+02 4.2792733E+01
EXPONENTS  1.5446290E+01 5.8776615E+00 1.5342639E+00 8.1600697E-01 2.6011080E-01
EXPONENTS  6.3352470E+01 6.3352470E+01 6.3352470E+01 1.4669976E+01 1.4669976E+01
EXPONENTS  1.4669976E+01 4.4663195E+00 4.4663195E+00 4.4663195E+00 1.5312799E+00
EXPONENTS  1.5312799E+00 1.5312799E+00 5.4400530E-01 5.4400530E-01 5.4400530E-01
EXPONENTS  1.7998470E-01 1.7998470E-01 1.7998470E-01 2.3901600E+00 2.3901600E+00
EXPONENTS  2.3901600E+00 2.3901600E+00 2.3901600E+00 2.3901600E+00 6.8183300E-01
EXPONENTS  6.8183300E-01 6.8183300E-01 6.8183300E-01 6.8183300E-01 6.8183300E-01
EXPONENTS  1.5109480E+00 1.5109480E+00 1.5109480E+00 1.5109480E+00 1.5109480E+00
EXPONENTS  1.5109480E+00 1.5109480E+00 1.5109480E+00 1.5109480E+00 1.5109480E+00
EXPONENTS  3.4877584E+01 5.2339728E+00 1.1850334E+00 3.2833943E-01 1.1031918E-01
EXPONENTS  7.1884400E-01 7.1884400E-01 7.1884400E-01 3.5000000E-01 3.5000000E-01
EXPONENTS  3.5000000E-01 1.0750600E+00 1.0750600E+00 1.0750600E+00 1.0750600E+00
EXPONENTS  1.0750600E+00 1.0750600E+00 3.4877584E+01 5.2339728E+00 1.1850334E+00
EXPONENTS  3.2833943E-01 1.1031918E-01 7.1884400E-01 7.1884400E-01 7.1884400E-01
EXPONENTS  3.5000000E-01 3.5000000E-01 3.5000000E-01 1.0750600E+00 1.0750600E+00
EXPONENTS  1.0750600E+00 1.0750600E+00 1.0750600E+00 1.0750600E+00
MO  1                     OCC NO =   2.00000000 ORB. ENERGY = -18.80084560
  5.48405343E-01  1.00485405E+00  1.67438924E+00  2.49608794E+00  2.95728032E+00
  2.36404894E+00  8.82076263E-01  5.44238670E-02 -1.58740726E-02  6.93896944E-04
 -6.02668334E-15 -1.07856597E-17 -8.28110024E-03 -7.16258522E-15 -3.08255167E-16
 -2.03881038E-02 -2.70040113E-15  2.89108471E-16 -7.21823791E-03  3.05434697E-17
 -6.86468517E-16 -6.00345169E-04 -9.97303478E-18  2.29019138E-15  1.77374741E-03
  9.00227369E-19  1.37691926E-16 -7.72290559E-05 -9.64097019E-04  2.86021800E-17
  3.85410906E-17  7.95621949E-04  2.74673234E-16  1.68475070E-04  8.50505337E-04
 -1.23159864E-18 -7.72940706E-19 -6.90810402E-04 -1.96847090E-15 -1.59694935E-04
  1.56224826E-19 -1.30230006E-15 -1.98580387E-03 -5.45024951E-19  2.56811295E-18
  7.63504722E-20  4.11655610E-16  3.66628615E-03  6.73332330E-17 -5.60160759E-04
  1.68954620E-04 -3.64288172E-04  7.88476381E-04  5.35870679E-04 -1.08507952E-04
  8.87618133E-19 -1.48049222E-03  9.95178082E-04 -1.19348081E-19  6.68741506E-05
 -2.57770328E-06 -4.00769979E-04  2.23164793E-19  7.57426374E-20  3.75163253E-04
 -8.87310036E-04  2.56067260E-05  1.68954620E-04 -3.64288172E-04  7.88476381E-04
  5.35870679E-04 -1.08507952E-04  6.95782476E-19  1.48049222E-03  9.95178082E-04
 -2.30519527E-19 -6.68741506E-05 -2.57770328E-06 -4.00769979E-04 -5.39407135E-19
 -5.16345570E-19  3.75163253E-04  8.87310036E-04  2.56067260E-05
MO  2                     OCC NO =   2.00000000 ORB. ENERGY =  -0.92529986
 -1.12824854E-01 -2.07932300E-01 -3.48298903E-01 -5.39651486E-01 -6.91183424E-01
 -7.04720596E-01 -3.62765144E-01  1.19193534E-01  2.60867186E-01  8.78166944E-02
 -5.50185361E-14  2.65344270E-14 -2.86375936E-01 -4.23307446E-14  1.85770666E-14
 -3.41946428E-01 -2.91720788E-14  6.22578988E-15 -2.63094078E-01 -1.97442531E-14
  2.33989072E-14 -1.61284218E-01 -6.37707236E-15 -6.97974652E-14 -3.39525391E-02
 -4.14354689E-16 -6.48634854E-15 -1.89665494E-03 -2.77272918E-02  3.84938496E-16
  4.88142684E-15  1.60776608E-02 -1.08208964E-14  1.16496310E-02 -3.82970047E-03
  1.04716701E-16  1.44723043E-15  2.91463586E-03  6.64165980E-14  9.15064614E-04
  4.98961451E-16  4.03167055E-14  1.23257481E-02 -8.80715010E-16 -5.33207155E-17
 -6.16169342E-16 -2.27773895E-15 -2.33424644E-02 -3.34834886E-14  3.67223877E-03
  2.82667347E-02  4.67577035E-02  6.68068421E-02  2.99560817E-02  4.53571243E-04
 -5.41299353E-16 -2.79184297E-02  1.71608651E-02 -1.46418067E-16  4.27940870E-04
 -1.16121086E-03 -6.23005875E-03  5.82813844E-16 -3.24094539E-16  7.75941109E-03
 -1.55651502E-02 -1.52935234E-03  2.82667347E-02  4.67577035E-02  6.68068421E-02
  2.99560817E-02  4.53571243E-04 -5.57693938E-16  2.79184297E-02  1.71608651E-02
 -1.63608149E-16 -4.27940870E-04 -1.16121086E-03 -6.23005875E-03 -6.03353812E-16
 -3.71558783E-16  7.75941109E-03  1.55651502E-02 -1.52935234E-03
MO  3                     OCC NO =   2.00000000 ORB. ENERGY =  -0.48171269
 -4.28152309E-16  7.60077389E-16  1.26785489E-15 -1.07904677E-15  6.74318957E-15
 -8.29544734E-15  1.37359365E-14 -3.06421078E-14  3.21504774E-14 -1.03195179E-15
  4.20081792E-14  1.21893139E+00  3.02758750E-14  2.88109892E-14  1.41711431E+00
  3.48962405E-14  2.72516903E-14  1.14331199E+00  2.64411226E-14  1.46162142E-14
  6.48056990E-01  1.48027218E-14  5.26444143E-15  1.83688560E-01 -4.88991126E-15
  5.34617729E-16  2.11751798E-02  2.88853724E-15 -3.63312499E-15 -1.21130929E-14
  4.79643340E-15  1.23256325E-14 -1.24323996E-01 -8.69250750E-15 -3.52104158E-15
 -4.81768547E-15 -6.95120441E-16  3.51505592E-15 -3.10351763E-02  5.98566458E-18
 -3.73226562E-17 -3.80850096E-02  1.55404967E-14 -8.22348530E-16  2.89136735E-15
  9.34316498E-16  7.09598569E-03 -1.69573743E-14  1.67970525E-02  4.72292539E-16
  4.05419912E-02  7.26876087E-02  1.00169400E-01  6.28705388E-02  8.57433007E-03
  1.70335512E-16 -1.23036322E-02  2.13025935E-02 -7.55138428E-16  2.48087411E-04
  1.36823234E-04 -6.62460642E-03  1.72039823E-16 -1.60386763E-16  1.60622953E-03
 -1.78493450E-02  5.01837689E-03 -4.05419912E-02 -7.26876087E-02 -1.00169400E-01
 -6.28705388E-02 -8.57433007E-03  5.69838946E-16 -1.23036322E-02 -2.13025935E-02
  8.94838334E-16  2.48087411E-04 -1.36823234E-04  6.62460642E-03  6.10565638E-16
  8.80431984E-16 -1.60622953E-03 -1.78493450E-02 -5.01837689E-03
MO  4                     OCC NO =   2.00000000 ORB. ENERGY =  -0.33727535
 -4.43937087E-02 -8.16327986E-02 -1.37266484E-01 -2.11841601E-01 -2.74239795E-01
 -2.77580618E-01 -1.50652281E-01  5.83182342E-02  1.03084635E-01  7.54800551E-02
 -2.43178649E-13 -8.26858357E-14  1.30240973E+00 -1.91092278E-13 -4.52324527E-14
  1.52015893E+00 -1.76448678E-13 -4.20870891E-14  1.22470171E+00 -9.77488570E-14
 -1.34783770E-14  7.05191210E-01 -2.80807469E-14 -4.18662907E-14  2.02273534E-01
 -5.90949583E-15 -4.57889851E-15  4.15815514E-02  2.84327208E-02  3.29857285E-17
 -7.44373009E-15  1.14370294E-02 -4.25136052E-15 -3.98697502E-02  9.17551337E-03
  1.12068213E-16 -2.76428532E-15  3.35907950E-03  3.90193030E-14 -1.25345929E-02
  8.75919141E-16  2.32187246E-14 -2.20953004E-02 -2.75487110E-15  4.87372964E-16
  1.27113674E-16 -1.01329756E-15  2.23033948E-02 -2.01788319E-14 -6.93647868E-05
 -2.30678753E-02 -4.07238362E-02 -6.05032746E-02 -3.62879457E-02 -2.81126893E-03
 -2.34427222E-15  1.67185367E-02  3.89257974E-03  1.87048355E-16 -2.51368841E-04
  9.67935193E-03  2.26033318E-03  1.21962943E-15 -1.42322035E-15 -8.91240810E-03
 -2.28531305E-03  6.65207492E-03 -2.30678753E-02 -4.07238362E-02 -6.05032746E-02
 -3.62879457E-02 -2.81126893E-03 -2.34545651E-15 -1.67185367E-02  3.89257974E-03
  2.48760954E-16  2.51368841E-04  9.67935193E-03  2.26033318E-03 -1.18217898E-15
 -1.40550292E-15 -8.91240810E-03  2.28531305E-03  6.65207492E-03
MO  5                     OCC NO =   2.00000000 ORB. ENERGY =  -0.26060960
 -6.76898675E-15 -1.32362412E-14 -2.14208000E-14 -3.39867169E-14 -4.32341139E-14
 -4.41609190E-14 -2.39611554E-14  1.07616661E-14  1.52131194E-14  1.39422259E-15
  1.49168587E+00 -4.11562708E-14  1.35538632E-13  1.73509078E+00 -5.49009739E-15
  1.65717422E-13  1.40807081E+00 -1.94155157E-14  1.30206783E-13  8.11112303E-01
 -3.57577887E-15  7.71152624E-14  2.39325562E-01  5.31362564E-16  2.94852209E-14
  5.57187787E-02  1.31298395E-15  7.14927221E-15 -1.32807920E-14  9.60580628E-16
 -6.49478893E-02  1.29163609E-14 -1.44212633E-15  3.64431092E-16 -1.57014863E-15
 -5.33042355E-16 -2.33511585E-02  1.30699883E-15 -5.02068194E-15  2.63149799E-16
 -1.09016582E-02 -1.78275666E-15 -8.02812625E-15  2.24472697E-02  3.03041576E-16
  1.02577048E-02 -8.84468949E-16  8.62475751E-15  4.43616351E-15 -1.98877087E-16
 -1.02878311E-15 -2.55821063E-15 -6.68395878E-15  2.27907969E-15 -4.12864945E-15
  1.95547568E-02 -1.56773084E-15  1.51330915E-15  9.34126951E-03  4.19370691E-16
  1.95990609E-15 -4.97310052E-17 -1.78251279E-02  1.11746712E-02 -1.90474923E-15
 -2.97690427E-16  1.95448024E-15 -2.76456440E-16 -3.07586356E-15 -1.29262740E-15
  9.03197073E-15  1.27028097E-15  1.95547568E-02  4.73282023E-15  6.82123463E-15
  9.34126951E-03  2.91440534E-15  5.04775733E-16 -3.42448738E-15  1.78251279E-02
  1.11746712E-02  2.41777473E-15  8.07261661E-15  1.00671265E-15
END DATA
RHF      ENERGY =        0.0000000000   VIRIAL(-V/T)  =   0.00000000
