From PySCF
GAUSSIAN              5 MOL ORBITALS    273 PRIMITIVES        3 NUCLEI
  O    1    (CENTRE  1)   0.00000000  0.00000000  0.22226052  CHARGE = 8.0
  H    2    (CENTRE  2)   1.43843496  0.00000000 -0.88904206  CHARGE = 1.0
  H    3    (CENTRE  3)  -1.43843496  0.00000000 -0.88904206  CHARGE = 1.0
CENTRE ASSIGNMENTS    1  1  1  1  1  1  1  1  1  1  1  1  1  1  1  1  1  1  1  1
CENTRE ASSIGNMENTS    1  1  1  1  1  1  1  1  1  1  1  1  1  1  1  1  1  1  1  1
CENTRE ASSIGNMENTS    1  1  1  1  1  1  1  1  1  1  1  1  1  1  1  1  1  1  1  1
CENTRE ASSIGNMENTS    1  1  1  1  1  1  1  1  1  1  1  1  1  1  1  1  1  1  1  1
CENTRE ASSIGNMENTS    1  1  1  1  1  1  1  1  1  1  1  1  1  1  1  1  1  1  1  1
CENTRE ASSIGNMENTS    1  1  1  1  1  1  1  1  1  1  1  1  1  1  1  1  1  1  1  1
CENTRE ASSIGNMENTS    1  1  1  1  1  1  1  1  1  1  1  1  1  1  1  1  1  1  1  1
CENTRE ASSIGNMENTS    1  1  1  1  1  1  1  1  1  1  1  1  1  1  1  2  2  2  2  2
CENTRE ASSIGNMENTS    2  2  2  2  2  2  2  2  2  2  2  2  2  2  2  2  2  2  2  2
CENTRE ASSIGNMENTS    2  2  2  2  2  2  2  2  2  2  2  2  2  2  2  2  2  2  2  2
CENTRE ASSIGNMENTS    2  2  2  2  2  2  2  2  2  2  2  2  2  2  3  3  3  3  3  3
CENTRE ASSIGNMENTS    3  3  3  3  3  3  3  3  3  3  3  3  3  3  3  3  3  3  3  3
CENTRE ASSIGNMENTS    3  3  3  3  3  3  3  3  3  3  3  3  3  3  3  3  3  3  3  3
CENTRE ASSIGNMENTS    3  3  3  3  3  3  3  3  3  3  3  3  3
TYPE ASSIGNMENTS      1  1  1  1  1  1  1  1  1  1  1  1  1  2  2  2  2  3  3  3
TYPE ASSIGNMENTS      3  4  4  4  4  2  3  4  2  3  4  2  3  4  2  3  4  2  3  4
TYPE ASSIGNMENTS      5  5  8  8  9  9  6  6 10 10  7  7  5  8  9  6 10  7  5  8
TYPE ASSIGNMENTS      9  6 10  7  5  8  9  6 10  7 11 11 14 14 15 15 17 17 20 20
TYPE ASSIGNMENTS     18 18 12 12 16 16 19 19 13 13 11 14 15 17 20 18 12 16 19 13
TYPE ASSIGNMENTS     11 14 15 17 20 18 12 16 19 13 21 21 24 24 25 25 30 30 33 33
TYPE ASSIGNMENTS     31 31 26 26 34 34 35 35 28 28 22 22 27 27 32 32 29 29 23 23
TYPE ASSIGNMENTS     21 24 25 30 33 31 26 34 35 28 22 27 32 29 23  1  1  1  1  1
TYPE ASSIGNMENTS      1  1  1  1  2  3  4  2  3  4  2  3  4  2  3  4  5  8  9  6
TYPE ASSIGNMENTS     10  7  5  8  9  6 10  7  5  8  9  6 10  7 11 14 15 17 20 18
TYPE ASSIGNMENTS     12 16 19 13 11 14 15 17 20 18 12 16 19 13  1  1  1  1  1  1
TYPE ASSIGNMENTS      1  1  1  2  3  4  2  3  4  2  3  4  2  3  4  5  8  9  6 10
TYPE ASSIGNMENTS      7  5  8  9  6 10  7  5  8  9  6 10  7 11 14 15 17 20 18 12
TYPE ASSIGNMENTS     16 19 13 11 14 15 17 20 18 12 16 19 13
EXPONENTS  1.1371829E+04 1.7060929E+03 3.8826799E+02 1.0975075E+02 3.5465902E+01
EXPONENTS  1.2534049E+01 9.8428230E+00 1.0495500E+00 4.5888600E+00 1.9723430E+00
EXPONENTS  4.3265900E-01 1.9162800E-01 6.3876000E-02 1.1164360E+02 2.6229036E+01
EXPONENTS  8.1625280E+00 2.9239230E+00 1.1164360E+02 2.6229036E+01 8.1625280E+00
EXPONENTS  2.9239230E+00 1.1164360E+02 2.6229036E+01 8.1625280E+00 2.9239230E+00
EXPONENTS  2.5608557E+01 2.5608557E+01 2.5608557E+01 1.1057210E+00 1.1057210E+00
EXPONENTS  1.1057210E+00 4.1363600E-01 4.1363600E-01 4.1363600E-01 1.4797700E-01
EXPONENTS  1.4797700E-01 1.4797700E-01 4.9325700E-02 4.9325700E-02 4.9325700E-02
EXPONENTS  1.0520368E+01 2.9714730E+00 1.0520368E+01 2.9714730E+00 1.0520368E+01
EXPONENTS  2.9714730E+00 1.0520368E+01 2.9714730E+00 1.0520368E+01 2.9714730E+00
EXPONENTS  1.0520368E+01 2.9714730E+00 1.1683940E+00 1.1683940E+00 1.1683940E+00
EXPONENTS  1.1683940E+00 1.1683940E+00 1.1683940E+00 4.2681900E-01 4.2681900E-01
EXPONENTS  4.2681900E-01 4.2681900E-01 4.2681900E-01 4.2681900E-01 1.4227300E-01
EXPONENTS  1.4227300E-01 1.4227300E-01 1.4227300E-01 1.4227300E-01 1.4227300E-01
EXPONENTS  4.8912290E+00 1.9686530E+00 4.8912290E+00 1.9686530E+00 4.8912290E+00
EXPONENTS  1.9686530E+00 4.8912290E+00 1.9686530E+00 4.8912290E+00 1.9686530E+00
EXPONENTS  4.8912290E+00 1.9686530E+00 4.8912290E+00 1.9686530E+00 4.8912290E+00
EXPONENTS  1.9686530E+00 4.8912290E+00 1.9686530E+00 4.8912290E+00 1.9686530E+00
EXPONENTS  7.4764400E-01 7.4764400E-01 7.4764400E-01 7.4764400E-01 7.4764400E-01
EXPONENTS  7.4764400E-01 7.4764400E-01 7.4764400E-01 7.4764400E-01 7.4764400E-01
EXPONENTS  2.4921470E-01 2.4921470E-01 2.4921470E-01 2.4921470E-01 2.4921470E-01
EXPONENTS  2.4921470E-01 2.4921470E-01 2.4921470E-01 2.4921470E-01 2.4921470E-01
EXPONENTS  2.6377970E+00 9.7211900E-01 2.6377970E+00 9.7211900E-01 2.6377970E+00
EXPONENTS  9.7211900E-01 2.6377970E+00 9.7211900E-01 2.6377970E+00 9.7211900E-01
EXPONENTS  2.6377970E+00 9.7211900E-01 2.6377970E+00 9.7211900E-01 2.6377970E+00
EXPONENTS  9.7211900E-01 2.6377970E+00 9.7211900E-01 2.6377970E+00 9.7211900E-01
EXPONENTS  2.6377970E+00 9.7211900E-01 2.6377970E+00 9.7211900E-01 2.6377970E+00
EXPONENTS  9.7211900E-01 2.6377970E+00 9.7211900E-01 2.6377970E+00 9.7211900E-01
EXPONENTS  3.3189570E-01 3.3189570E-01 3.3189570E-01 3.3189570E-01 3.3189570E-01
EXPONENTS  3.3189570E-01 3.3189570E-01 3.3189570E-01 3.3189570E-01 3.3189570E-01
EXPONENTS  3.3189570E-01 3.3189570E-01 3.3189570E-01 3.3189570E-01 3.3189570E-01
EXPONENTS  4.1855801E+02 6.2745349E+01 1.4279584E+01 4.0418170E+00 1.3163895E+00
EXPONENTS  4.7346190E-01 1.8279990E-01 7.2884400E-02 2.4294800E-02 2.8606730E+00
EXPONENTS  2.8606730E+00 2.8606730E+00 8.8819000E-01 8.8819000E-01 8.8819000E-01
EXPONENTS  3.0377600E-01 3.0377600E-01 3.0377600E-01 1.0125870E-01 1.0125870E-01
EXPONENTS  1.0125870E-01 1.7706130E+00 1.7706130E+00 1.7706130E+00 1.7706130E+00
EXPONENTS  1.7706130E+00 1.7706130E+00 5.9308100E-01 5.9308100E-01 5.9308100E-01
EXPONENTS  5.9308100E-01 5.9308100E-01 5.9308100E-01 1.9769370E-01 1.9769370E-01
EXPONENTS  1.9769370E-01 1.9769370E-01 1.9769370E-01 1.9769370E-01 1.4514450E+00
EXPONENTS  1.4514450E+00 1.4514450E+00 1.4514450E+00 1.4514450E+00 1.4514450E+00
EXPONENTS  1.4514450E+00 1.4514450E+00 1.4514450E+00 1.4514450E+00 4.8381500E-01
EXPONENTS  4.8381500E-01 4.8381500E-01 4.8381500E-01 4.8381500E-01 4.8381500E-01
EXPONENTS  4.8381500E-01 4.8381500E-01 4.8381500E-01 4.8381500E-01 4.1855801E+02
EXPONENTS  6.2745349E+01 1.4279584E+01 4.0418170E+00 1.3163895E+00 4.7346190E-01
EXPONENTS  1.8279990E-01 7.2884400E-02 2.4294800E-02 2.8606730E+00 2.8606730E+00
EXPONENTS  2.8606730E+00 8.8819000E-01 8.8819000E-01 8.8819000E-01 3.0377600E-01
EXPONENTS  3.0377600E-01 3.0377600E-01 1.0125870E-01 1.0125870E-01 1.0125870E-01
EXPONENTS  1.7706130E+00 1.7706130E+00 1.7706130E+00 1.7706130E+00 1.7706130E+00
EXPONENTS  1.7706130E+00 5.9308100E-01 5.9308100E-01 5.9308100E-01 5.9308100E-01
EXPONENTS  5.9308100E-01 5.9308100E-01 1.9769370E-01 1.9769370E-01 1.9769370E-01
EXPONENTS  1.9769370E-01 1.9769370E-01 1.9769370E-01 1.4514450E+00 1.4514450E+00
EXPONENTS  1.4514450E+00 1.4514450E+00 1.4514450E+00 1.4514450E+00 1.4514450E+00
EXPONENTS  1.4514450E+00 1.4514450E+00 1.4514450E+00 4.8381500E-01 4.8381500E-01
EXPONENTS  4.8381500E-01 4.8381500E-01 4.8381500E-01 4.8381500E-01 4.8381500E-01
EXPONENTS  4.8381500E-01 4.8381500E-01 4.8381500E-01
MO  1                     OCC NO =   2.00000000 ORB. ENERGY = -20.56471770
  5.75110052E-01  1.07019106E+00  1.79553389E+00  2.64005231E+00  3.06979961E+00
  2.20317461E+00 -2.49803888E-02  2.43786730E-02  5.72421692E-01 -2.66302297E-02
 -8.05455528E-03  1.67247077E-03  5.23252009E-04  0.00000000E+00  0.00000000E+00
  0.00000000E+00  0.00000000E+00  0.00000000E+00  0.00000000E+00  0.00000000E+00
  0.00000000E+00 -6.49390347E-03 -7.95231924E-03 -7.99733050E-03 -6.22923561E-03
  0.00000000E+00  0.00000000E+00 -2.30564353E-02  0.00000000E+00  0.00000000E+00
  9.57884744E-04  0.00000000E+00  0.00000000E+00  1.04073018E-03  0.00000000E+00
  0.00000000E+00 -6.20517346E-04  0.00000000E+00  0.00000000E+00 -2.89673174E-05
  1.39289992E-04  1.74782602E-04  0.00000000E+00  0.00000000E+00  0.00000000E+00
  0.00000000E+00 -7.86305848E-04 -9.86665159E-04  0.00000000E+00  0.00000000E+00
  6.47015856E-04  8.11882557E-04 -3.32780134E-04  0.00000000E+00  0.00000000E+00
  9.27044160E-04  0.00000000E+00 -5.94264027E-04 -3.57523825E-04  0.00000000E+00
  0.00000000E+00  1.73831034E-04  0.00000000E+00  1.83692791E-04  2.82660914E-05
  0.00000000E+00  0.00000000E+00 -6.67041043E-05  0.00000000E+00  3.84380129E-05
  0.00000000E+00  0.00000000E+00  0.00000000E+00  0.00000000E+00 -9.74336511E-04
 -6.55325681E-04  0.00000000E+00  0.00000000E+00  0.00000000E+00  0.00000000E+00
  0.00000000E+00  0.00000000E+00  0.00000000E+00  0.00000000E+00  3.70223498E-04
  2.49007363E-04  0.00000000E+00  0.00000000E+00  2.01371004E-04  1.35439439E-04
  0.00000000E+00  0.00000000E+00  2.87156646E-04  0.00000000E+00  0.00000000E+00
  0.00000000E+00  0.00000000E+00 -2.55636603E-04  0.00000000E+00 -1.05066812E-05
  0.00000000E+00  0.00000000E+00 -1.98561416E-04  0.00000000E+00  0.00000000E+00
  0.00000000E+00  0.00000000E+00  8.59776355E-05  0.00000000E+00  3.75279267E-05
 -9.16950182E-06 -8.88182008E-07  0.00000000E+00  0.00000000E+00  0.00000000E+00
  0.00000000E+00  6.78886314E-05  6.57587098E-06  0.00000000E+00  0.00000000E+00
 -1.28716204E-05 -1.24677893E-06  0.00000000E+00  0.00000000E+00  0.00000000E+00
  0.00000000E+00  0.00000000E+00  0.00000000E+00  0.00000000E+00  0.00000000E+00
 -8.98532429E-05 -8.70342090E-06  0.00000000E+00  0.00000000E+00  4.71230826E-04
  4.56446544E-05  0.00000000E+00  0.00000000E+00 -7.63932010E-05 -7.39964591E-06
 -2.52780476E-05  0.00000000E+00  0.00000000E+00 -1.86047959E-06  0.00000000E+00
  1.53528765E-04  0.00000000E+00  0.00000000E+00  0.00000000E+00  0.00000000E+00
  4.39551845E-06  0.00000000E+00 -2.45126311E-05  0.00000000E+00 -2.15026890E-05
  3.90368596E-06  7.28982717E-06  1.24777641E-05  1.96210415E-05  2.72766272E-05
  5.29023275E-04 -2.52023657E-04 -2.80630058E-04 -3.32054210E-06  7.07748527E-04
  0.00000000E+00 -5.05264730E-04 -7.46817734E-04  0.00000000E+00  5.51406911E-04
 -4.24925512E-04  0.00000000E+00  7.09586452E-04  3.02575680E-05  0.00000000E+00
  1.45643538E-05  2.73537636E-04  0.00000000E+00 -5.18493742E-04 -1.98188827E-05
  0.00000000E+00 -2.53718754E-04  4.09351040E-06  0.00000000E+00  9.08292546E-05
 -1.47384912E-04  0.00000000E+00  1.43291401E-04  5.83702565E-06  0.00000000E+00
 -5.38476973E-05 -3.58900644E-05  0.00000000E+00  3.00530388E-05 -1.49811794E-04
  0.00000000E+00  1.23998203E-03  8.16192311E-04  0.00000000E+00 -3.66756929E-04
  0.00000000E+00 -4.24649551E-04  0.00000000E+00 -2.71777493E-04 -8.97615343E-06
  0.00000000E+00 -2.43067704E-04 -1.31052677E-04  0.00000000E+00  1.57981137E-04
  0.00000000E+00  6.16646320E-05  0.00000000E+00  6.04676907E-05  3.90368596E-06
  7.28982717E-06  1.24777641E-05  1.96210415E-05  2.72766272E-05  5.29023275E-04
 -2.52023657E-04 -2.80630058E-04 -3.32054210E-06 -7.07748527E-04  0.00000000E+00
 -5.05264730E-04  7.46817734E-04  0.00000000E+00  5.51406911E-04  4.24925512E-04
  0.00000000E+00  7.09586452E-04 -3.02575680E-05  0.00000000E+00  1.45643538E-05
  2.73537636E-04  0.00000000E+00  5.18493742E-04 -1.98188827E-05  0.00000000E+00
 -2.53718754E-04  4.09351040E-06  0.00000000E+00 -9.08292546E-05 -1.47384912E-04
  0.00000000E+00  1.43291401E-04  5.83702565E-06  0.00000000E+00  5.38476973E-05
 -3.58900644E-05  0.00000000E+00  3.00530388E-05  1.49811794E-04  0.00000000E+00
  1.23998203E-03 -8.16192311E-04  0.00000000E+00  3.66756929E-04  0.00000000E+00
 -4.24649551E-04  0.00000000E+00 -2.71777493E-04  8.97615343E-06  0.00000000E+00
 -2.43067704E-04  1.31052677E-04  0.00000000E+00 -1.57981137E-04  0.00000000E+00
  6.16646320E-05  0.00000000E+00  6.04676907E-05
MO  2                     OCC NO =   2.00000000 ORB. ENERGY =  -1.34964001
 -1.28758712E-01 -2.39600094E-01 -4.01993723E-01 -5.91069023E-01 -6.87283145E-01
 -5.49635541E-01 -2.16880708E-01  2.11656588E-01 -1.92596276E-01  7.41530845E-02
  1.93741676E-01  5.43352868E-02  2.95978245E-03  0.00000000E+00  0.00000000E+00
  0.00000000E+00  0.00000000E+00  0.00000000E+00  0.00000000E+00  0.00000000E+00
  0.00000000E+00 -1.37116302E-01 -1.67910197E-01 -1.68860592E-01 -1.31527941E-01
  0.00000000E+00  0.00000000E+00 -9.73566538E-03  0.00000000E+00  0.00000000E+00
 -6.76882600E-02  0.00000000E+00  0.00000000E+00 -4.50688346E-02  0.00000000E+00
  0.00000000E+00 -2.56131716E-03  0.00000000E+00  0.00000000E+00 -3.57841717E-05
  5.25637990E-03  6.59576286E-03  0.00000000E+00  0.00000000E+00  0.00000000E+00
  0.00000000E+00 -7.43083118E-03 -9.32428806E-03  0.00000000E+00  0.00000000E+00
  2.17445129E-03  2.72852521E-03  1.26232201E-02  0.00000000E+00  0.00000000E+00
 -1.76302340E-02  0.00000000E+00  5.00701386E-03  8.02427941E-03  0.00000000E+00
  0.00000000E+00 -9.15671752E-03  0.00000000E+00  1.13243810E-03  1.51165025E-04
  0.00000000E+00  0.00000000E+00 -8.00591590E-05  0.00000000E+00 -7.11058663E-05
  0.00000000E+00  0.00000000E+00  0.00000000E+00  0.00000000E+00 -2.96379576E-02
 -1.99340931E-02  0.00000000E+00  0.00000000E+00  0.00000000E+00  0.00000000E+00
  0.00000000E+00  0.00000000E+00  0.00000000E+00  0.00000000E+00  1.47171582E-02
  9.89856342E-03  0.00000000E+00  0.00000000E+00  4.97359979E-03  3.34517657E-03
  0.00000000E+00  0.00000000E+00 -1.75660237E-02  0.00000000E+00  0.00000000E+00
  0.00000000E+00  0.00000000E+00  9.87156809E-03  0.00000000E+00  2.56481853E-03
  0.00000000E+00  0.00000000E+00  1.46412171E-04  0.00000000E+00  0.00000000E+00
  0.00000000E+00  0.00000000E+00  1.42752738E-04  0.00000000E+00 -9.63883030E-05
 -2.94753453E-03 -2.85505930E-04  0.00000000E+00  0.00000000E+00  0.00000000E+00
  0.00000000E+00 -2.32487268E-02 -2.25193268E-03  0.00000000E+00  0.00000000E+00
  4.09339340E-02  3.96496826E-03  0.00000000E+00  0.00000000E+00  0.00000000E+00
  0.00000000E+00  0.00000000E+00  0.00000000E+00  0.00000000E+00  0.00000000E+00
  5.97327553E-03  5.78587143E-04  0.00000000E+00  0.00000000E+00 -1.25909264E-02
 -1.21959017E-03  0.00000000E+00  0.00000000E+00 -4.72383459E-03 -4.57563014E-04
  1.30511315E-04  0.00000000E+00  0.00000000E+00 -1.95000588E-04  0.00000000E+00
 -5.88067303E-04  0.00000000E+00  0.00000000E+00  0.00000000E+00  0.00000000E+00
  3.07971367E-05  0.00000000E+00  1.02177680E-05  0.00000000E+00  9.63082558E-05
  6.63851013E-03  1.23968967E-02  2.12193717E-02  3.33670496E-02  4.63859459E-02
  9.68472963E-03 -5.90957818E-03 -1.35473988E-03 -4.55496475E-05 -2.17514111E-02
  0.00000000E+00  1.46233634E-02 -3.83342528E-03  0.00000000E+00  1.49662934E-03
  5.78062466E-03  0.00000000E+00 -6.40513303E-03  5.04114356E-04  0.00000000E+00
 -5.40397405E-04  4.33672400E-03  0.00000000E+00 -9.55764554E-03 -4.63845593E-03
  0.00000000E+00  3.01731935E-04  8.00578068E-05  0.00000000E+00 -1.51872160E-03
  7.45064763E-04  0.00000000E+00 -8.25122569E-04 -1.28408543E-04  0.00000000E+00
  4.96176316E-04  3.36168964E-04  0.00000000E+00 -2.07760421E-04 -3.13826052E-04
  0.00000000E+00  6.93188159E-03  3.59444253E-03  0.00000000E+00 -2.65296438E-03
  0.00000000E+00 -3.71427721E-03  0.00000000E+00 -1.07253479E-03  8.40500616E-05
  0.00000000E+00  1.51307290E-03  7.43437506E-04  0.00000000E+00 -9.95587690E-04
  0.00000000E+00 -2.81579822E-04  0.00000000E+00 -4.10497693E-04  6.63851013E-03
  1.23968967E-02  2.12193717E-02  3.33670496E-02  4.63859459E-02  9.68472963E-03
 -5.90957818E-03 -1.35473988E-03 -4.55496475E-05  2.17514111E-02  0.00000000E+00
  1.46233634E-02  3.83342528E-03  0.00000000E+00  1.49662934E-03 -5.78062466E-03
  0.00000000E+00 -6.40513303E-03 -5.04114356E-04  0.00000000E+00 -5.40397405E-04
  4.33672400E-03  0.00000000E+00  9.55764554E-03 -4.63845593E-03  0.00000000E+00
  3.01731935E-04  8.00578068E-05  0.00000000E+00  1.51872160E-03  7.45064763E-04
  0.00000000E+00 -8.25122569E-04 -1.28408543E-04  0.00000000E+00 -4.96176316E-04
  3.36168964E-04  0.00000000E+00 -2.07760421E-04  3.13826052E-04  0.00000000E+00
  6.93188159E-03 -3.59444253E-03  0.00000000E+00  2.65296438E-03  0.00000000E+00
 -3.71427721E-03  0.00000000E+00 -1.07253479E-03 -8.40500616E-05  0.00000000E+00
  1.51307290E-03 -7.43437506E-04  0.00000000E+00  9.95587690E-04  0.00000000E+00
 -2.81579822E-04  0.00000000E+00 -4.10497693E-04
MO  3                     OCC NO =   2.00000000 ORB. ENERGY =  -0.71554700
  0.00000000E+00  0.00000000E+00  0.00000000E+00  0.00000000E+00  0.00000000E+00
  0.00000000E+00  0.00000000E+00  0.00000000E+00  0.00000000E+00  0.00000000E+00
  0.00000000E+00  0.00000000E+00  0.00000000E+00  8.94176508E-01  1.09499272E+00
  1.10119054E+00  8.57733131E-01  0.00000000E+00  0.00000000E+00  0.00000000E+00
  0.00000000E+00  0.00000000E+00  0.00000000E+00  0.00000000E+00  0.00000000E+00
  3.35429045E-02  0.00000000E+00  0.00000000E+00  4.41367202E-01  0.00000000E+00
  0.00000000E+00  1.24430259E-01  0.00000000E+00  0.00000000E+00  1.14732295E-02
  0.00000000E+00  0.00000000E+00  2.04865800E-04  0.00000000E+00  0.00000000E+00
  0.00000000E+00  0.00000000E+00  0.00000000E+00  0.00000000E+00 -9.88321952E-02
 -1.24015717E-01  0.00000000E+00  0.00000000E+00  0.00000000E+00  0.00000000E+00
  0.00000000E+00  0.00000000E+00  0.00000000E+00  0.00000000E+00 -6.90964375E-02
  0.00000000E+00  0.00000000E+00  0.00000000E+00  0.00000000E+00  0.00000000E+00
 -1.21484851E-02  0.00000000E+00  0.00000000E+00  0.00000000E+00  0.00000000E+00
  0.00000000E+00 -4.52155795E-04  0.00000000E+00  0.00000000E+00  0.00000000E+00
  1.00676138E-02  6.77134215E-03  0.00000000E+00  0.00000000E+00  0.00000000E+00
  0.00000000E+00 -4.80104466E-02 -3.22911830E-02  0.00000000E+00  0.00000000E+00
  1.78076051E-02  1.19771566E-02  0.00000000E+00  0.00000000E+00  0.00000000E+00
  0.00000000E+00  0.00000000E+00  0.00000000E+00  0.00000000E+00  0.00000000E+00
  1.61924039E-03  0.00000000E+00  0.00000000E+00 -5.09205025E-03  0.00000000E+00
  2.34329068E-04  0.00000000E+00  0.00000000E+00  0.00000000E+00  0.00000000E+00
 -2.01722241E-04  0.00000000E+00  0.00000000E+00  2.04928587E-04  0.00000000E+00
  4.00238135E-04  0.00000000E+00  0.00000000E+00  0.00000000E+00  0.00000000E+00
  0.00000000E+00  0.00000000E+00  0.00000000E+00  0.00000000E+00 -1.98351167E-02
 -1.92128145E-03  0.00000000E+00  0.00000000E+00  0.00000000E+00  0.00000000E+00
  0.00000000E+00  0.00000000E+00  0.00000000E+00  0.00000000E+00  2.72359412E-02
  2.63814474E-03  0.00000000E+00  0.00000000E+00  1.07564696E-02  1.04189987E-03
  0.00000000E+00  0.00000000E+00  0.00000000E+00  0.00000000E+00  0.00000000E+00
  0.00000000E+00  0.00000000E+00  0.00000000E+00  0.00000000E+00  0.00000000E+00
  0.00000000E+00  0.00000000E+00  2.71618337E-04  0.00000000E+00  0.00000000E+00
  0.00000000E+00  0.00000000E+00 -2.43271005E-04  0.00000000E+00 -1.90528002E-04
  0.00000000E+00  0.00000000E+00  0.00000000E+00  0.00000000E+00  0.00000000E+00
  1.05816324E-02  1.97603681E-02  3.38231904E-02  5.31863095E-02  7.39381307E-02
  6.26892042E-02  1.87993522E-02 -4.82677982E-04  4.22725764E-06 -1.40447526E-02
  0.00000000E+00  1.92380770E-02 -1.44341576E-02  0.00000000E+00  1.85690178E-02
  1.05791860E-03  0.00000000E+00  3.91597888E-03  4.89441320E-04  0.00000000E+00
 -2.35609125E-04  1.54576471E-03  0.00000000E+00 -1.88123837E-02 -5.72243821E-03
  0.00000000E+00  4.17667350E-03 -2.35119402E-06  0.00000000E+00 -3.68631324E-03
 -1.06414033E-03  0.00000000E+00  1.06649152E-03 -2.27685285E-04  0.00000000E+00
  3.55078668E-04  8.58037009E-05  0.00000000E+00  1.41881584E-04  9.02057366E-04
  0.00000000E+00  3.20208747E-03  1.83619575E-03  0.00000000E+00 -4.54236785E-03
  0.00000000E+00 -2.60867911E-03  0.00000000E+00 -1.97802788E-04 -2.13694995E-05
  0.00000000E+00  4.61352580E-04  2.20642610E-04  0.00000000E+00 -1.56534111E-04
  0.00000000E+00 -1.27418956E-04  0.00000000E+00 -1.11311208E-04 -1.05816324E-02
 -1.97603681E-02 -3.38231904E-02 -5.31863095E-02 -7.39381307E-02 -6.26892042E-02
 -1.87993522E-02  4.82677982E-04 -4.22725764E-06 -1.40447526E-02  0.00000000E+00
 -1.92380770E-02 -1.44341576E-02  0.00000000E+00 -1.85690178E-02  1.05791860E-03
  0.00000000E+00 -3.91597888E-03  4.89441320E-04  0.00000000E+00  2.35609125E-04
 -1.54576471E-03  0.00000000E+00 -1.88123837E-02  5.72243821E-03  0.00000000E+00
 -4.17667350E-03  2.35119402E-06  0.00000000E+00 -3.68631324E-03  1.06414033E-03
  0.00000000E+00 -1.06649152E-03  2.27685285E-04  0.00000000E+00  3.55078668E-04
 -8.58037009E-05  0.00000000E+00 -1.41881584E-04  9.02057366E-04  0.00000000E+00
 -3.20208747E-03  1.83619575E-03  0.00000000E+00 -4.54236785E-03  0.00000000E+00
  2.60867911E-03  0.00000000E+00  1.97802788E-04 -2.13694995E-05  0.00000000E+00
 -4.61352580E-04  2.20642610E-04  0.00000000E+00 -1.56534111E-04  0.00000000E+00
  1.27418956E-04  0.00000000E+00  1.11311208E-04
MO  4                     OCC NO =   2.00000000 ORB. ENERGY =  -0.58391329
 -4.20210074E-02 -7.81946101E-02 -1.31192530E-01 -1.92898137E-01 -2.24298065E-01
 -1.82864644E-01 -7.31197740E-02  7.13584995E-02 -6.43699573E-02  3.06793315E-02
  9.11949750E-02  3.79066208E-02 -5.06516055E-04  0.00000000E+00  0.00000000E+00
  0.00000000E+00  0.00000000E+00  0.00000000E+00  0.00000000E+00  0.00000000E+00
  0.00000000E+00  9.89348357E-01  1.21153849E+00  1.21839597E+00  9.49026122E-01
  0.00000000E+00  0.00000000E+00  2.53832056E-02  0.00000000E+00  0.00000000E+00
  4.85004277E-01  0.00000000E+00  0.00000000E+00  1.33455493E-01  0.00000000E+00
  0.00000000E+00  1.95351108E-02  0.00000000E+00  0.00000000E+00  4.40548173E-04
 -3.97433747E-03 -4.98704203E-03  0.00000000E+00  0.00000000E+00  0.00000000E+00
  0.00000000E+00  2.81094194E-02  3.52720062E-02  0.00000000E+00  0.00000000E+00
 -2.41350819E-02 -3.02849642E-02  3.51203119E-03  0.00000000E+00  0.00000000E+00
  1.49495660E-02  0.00000000E+00 -1.84615972E-02  3.94807130E-03  0.00000000E+00
  0.00000000E+00  2.50208013E-04  0.00000000E+00 -4.19827932E-03  5.97282114E-05
  0.00000000E+00  0.00000000E+00  3.42928305E-04  0.00000000E+00 -4.02656516E-04
  0.00000000E+00  0.00000000E+00  0.00000000E+00  0.00000000E+00  3.62970577E-02
  2.44129146E-02  0.00000000E+00  0.00000000E+00  0.00000000E+00  0.00000000E+00
  0.00000000E+00  0.00000000E+00  0.00000000E+00  0.00000000E+00 -3.37348021E-02
 -2.26895759E-02  0.00000000E+00  0.00000000E+00 -8.54085197E-04 -5.74446259E-04
  0.00000000E+00  0.00000000E+00 -3.88183407E-03  0.00000000E+00  0.00000000E+00
  0.00000000E+00  0.00000000E+00 -7.75892963E-04  0.00000000E+00  1.55257568E-03
  0.00000000E+00  0.00000000E+00 -6.22172901E-05  0.00000000E+00  0.00000000E+00
  0.00000000E+00  0.00000000E+00 -1.36353945E-04  0.00000000E+00  6.61904118E-05
  1.94430620E-03  1.88330601E-04  0.00000000E+00  0.00000000E+00  0.00000000E+00
  0.00000000E+00 -4.22885071E-03 -4.09617577E-04  0.00000000E+00  0.00000000E+00
 -7.43698650E-03 -7.20366028E-04  0.00000000E+00  0.00000000E+00  0.00000000E+00
  0.00000000E+00  0.00000000E+00  0.00000000E+00  0.00000000E+00  0.00000000E+00
 -4.94888833E-04 -4.79362310E-05  0.00000000E+00  0.00000000E+00  7.19818370E-03
  6.97234962E-04  0.00000000E+00  0.00000000E+00  3.98004664E-05  3.85517761E-06
  3.01183887E-05  0.00000000E+00  0.00000000E+00 -1.87894856E-04  0.00000000E+00
  7.18452381E-06  0.00000000E+00  0.00000000E+00  0.00000000E+00  0.00000000E+00
  2.38175723E-05  0.00000000E+00  4.49894223E-05  0.00000000E+00 -8.69565768E-06
 -6.36607323E-03 -1.18881421E-02 -2.03485528E-02 -3.19977039E-02 -4.44823195E-02
 -4.97086956E-02 -1.68399423E-02  7.24748788E-04 -3.22121274E-05  1.46876577E-02
  0.00000000E+00  3.16794053E-03  2.14643368E-02  0.00000000E+00 -2.02676296E-03
  7.04754452E-03  0.00000000E+00  7.32580348E-04 -1.29894176E-04  0.00000000E+00
  5.73640973E-04 -9.64299858E-03  0.00000000E+00  7.46308597E-03  3.99532930E-03
  0.00000000E+00  5.64766928E-03 -3.02300620E-03  0.00000000E+00  9.94720243E-04
  1.47595206E-03  0.00000000E+00  1.54705414E-03 -2.79810581E-04  0.00000000E+00
 -6.14812255E-05  1.21401709E-04  0.00000000E+00  1.58408873E-04  1.85227721E-03
  0.00000000E+00 -2.49203751E-03 -2.25056533E-03  0.00000000E+00 -3.30626629E-03
  0.00000000E+00 -5.10375051E-04  0.00000000E+00  1.00080419E-03  2.57664214E-04
  0.00000000E+00  2.20604952E-04 -8.88857031E-05  0.00000000E+00 -6.84106939E-04
  0.00000000E+00 -4.46604937E-05  0.00000000E+00 -5.86481529E-05 -6.36607323E-03
 -1.18881421E-02 -2.03485528E-02 -3.19977039E-02 -4.44823195E-02 -4.97086956E-02
 -1.68399423E-02  7.24748788E-04 -3.22121274E-05 -1.46876577E-02  0.00000000E+00
  3.16794053E-03 -2.14643368E-02  0.00000000E+00 -2.02676296E-03 -7.04754452E-03
  0.00000000E+00  7.32580348E-04  1.29894176E-04  0.00000000E+00  5.73640973E-04
 -9.64299858E-03  0.00000000E+00 -7.46308597E-03  3.99532930E-03  0.00000000E+00
  5.64766928E-03 -3.02300620E-03  0.00000000E+00 -9.94720243E-04  1.47595206E-03
  0.00000000E+00  1.54705414E-03 -2.79810581E-04  0.00000000E+00  6.14812255E-05
  1.21401709E-04  0.00000000E+00  1.58408873E-04 -1.85227721E-03  0.00000000E+00
 -2.49203751E-03  2.25056533E-03  0.00000000E+00  3.30626629E-03  0.00000000E+00
 -5.10375051E-04  0.00000000E+00  1.00080419E-03 -2.57664214E-04  0.00000000E+00
  2.20604952E-04  8.88857031E-05  0.00000000E+00  6.84106939E-04  0.00000000E+00
 -4.46604937E-05  0.00000000E+00 -5.86481529E-05
MO  5                     OCC NO =   2.00000000 ORB. ENERGY =  -0.51022796
  0.00000000E+00  0.00000000E+00  0.00000000E+00  0.00000000E+00  0.00000000E+00
  0.00000000E+00  0.00000000E+00  0.00000000E+00  0.00000000E+00  0.00000000E+00
  0.00000000E+00  0.00000000E+00  0.00000000E+00  0.00000000E+00  0.00000000E+00
  0.00000000E+00  0.00000000E+00  1.12659500E+00  1.37960830E+00  1.38741708E+00
  1.08067909E+00  0.00000000E+00  0.00000000E+00  0.00000000E+00  0.00000000E+00
  0.00000000E+00  1.87722359E-02  0.00000000E+00  0.00000000E+00  5.49944665E-01
  0.00000000E+00  0.00000000E+00  1.72893890E-01  0.00000000E+00  0.00000000E+00
  2.53233995E-02  0.00000000E+00  0.00000000E+00  5.28185409E-04  0.00000000E+00
  0.00000000E+00  0.00000000E+00  0.00000000E+00  0.00000000E+00  0.00000000E+00
  0.00000000E+00  0.00000000E+00  0.00000000E+00 -3.87850712E-02 -4.86679306E-02
  0.00000000E+00  0.00000000E+00  0.00000000E+00  0.00000000E+00  0.00000000E+00
  0.00000000E+00 -3.21071461E-02  0.00000000E+00  0.00000000E+00  0.00000000E+00
  0.00000000E+00  0.00000000E+00 -6.56673719E-03  0.00000000E+00  0.00000000E+00
  0.00000000E+00  0.00000000E+00  0.00000000E+00 -4.85577431E-04  0.00000000E+00
  0.00000000E+00  0.00000000E+00  3.29748198E-02  2.21784219E-02  0.00000000E+00
  0.00000000E+00  0.00000000E+00  0.00000000E+00  0.00000000E+00  0.00000000E+00
  0.00000000E+00  0.00000000E+00 -1.56881258E-02 -1.05516232E-02  0.00000000E+00
  0.00000000E+00  1.40895575E-02  9.47644757E-03  0.00000000E+00  0.00000000E+00
  0.00000000E+00  4.68670437E-03  0.00000000E+00  0.00000000E+00  0.00000000E+00
  0.00000000E+00 -2.31643948E-03  0.00000000E+00  2.26261408E-03  0.00000000E+00
  0.00000000E+00  3.96710518E-06  0.00000000E+00  0.00000000E+00  0.00000000E+00
  0.00000000E+00 -5.62986169E-05  0.00000000E+00  1.64928745E-04  0.00000000E+00
  0.00000000E+00  0.00000000E+00  0.00000000E+00  0.00000000E+00  0.00000000E+00
  0.00000000E+00  0.00000000E+00  0.00000000E+00 -2.23395677E-02 -2.16386915E-03
  0.00000000E+00  0.00000000E+00  0.00000000E+00  0.00000000E+00  0.00000000E+00
  0.00000000E+00  0.00000000E+00  0.00000000E+00  0.00000000E+00  0.00000000E+00
  0.00000000E+00  0.00000000E+00  8.23489144E-03  7.97653194E-04  0.00000000E+00
  0.00000000E+00 -7.88368880E-04 -7.63634785E-05  0.00000000E+00  0.00000000E+00
  0.00000000E+00  0.00000000E+00  0.00000000E+00  0.00000000E+00  9.32631732E-05
  0.00000000E+00  0.00000000E+00  0.00000000E+00  0.00000000E+00  0.00000000E+00
  0.00000000E+00  1.90870170E-05  0.00000000E+00 -5.01747414E-05  0.00000000E+00
  0.00000000E+00  0.00000000E+00  0.00000000E+00  0.00000000E+00  0.00000000E+00
  0.00000000E+00  0.00000000E+00  0.00000000E+00  0.00000000E+00  0.00000000E+00
  1.64944568E-02  0.00000000E+00  0.00000000E+00  1.69946162E-02  0.00000000E+00
  0.00000000E+00  9.11033290E-03  0.00000000E+00  0.00000000E+00  9.26058761E-04
  0.00000000E+00  0.00000000E+00 -1.52634706E-02  0.00000000E+00  0.00000000E+00
  1.10520086E-02  0.00000000E+00  0.00000000E+00 -5.18778265E-03  0.00000000E+00
  0.00000000E+00  4.02843417E-03  0.00000000E+00  0.00000000E+00 -6.50435393E-04
  0.00000000E+00  0.00000000E+00  5.61383669E-04  0.00000000E+00  0.00000000E+00
  4.87762250E-03  0.00000000E+00  0.00000000E+00 -9.74222521E-03  0.00000000E+00
 -2.15592665E-03  0.00000000E+00  1.59015746E-03  0.00000000E+00  0.00000000E+00
  3.14083868E-04  0.00000000E+00  0.00000000E+00 -8.11310029E-04  0.00000000E+00
 -1.71557934E-04  0.00000000E+00  2.00589935E-04  0.00000000E+00  0.00000000E+00
  0.00000000E+00  0.00000000E+00  0.00000000E+00  0.00000000E+00  0.00000000E+00
  0.00000000E+00  0.00000000E+00  0.00000000E+00  0.00000000E+00  1.64944568E-02
  0.00000000E+00  0.00000000E+00  1.69946162E-02  0.00000000E+00  0.00000000E+00
  9.11033290E-03  0.00000000E+00  0.00000000E+00  9.26058761E-04  0.00000000E+00
  0.00000000E+00  1.52634706E-02  0.00000000E+00  0.00000000E+00  1.10520086E-02
  0.00000000E+00  0.00000000E+00  5.18778265E-03  0.00000000E+00  0.00000000E+00
  4.02843417E-03  0.00000000E+00  0.00000000E+00  6.50435393E-04  0.00000000E+00
  0.00000000E+00  5.61383669E-04  0.00000000E+00  0.00000000E+00  4.87762250E-03
  0.00000000E+00  0.00000000E+00  9.74222521E-03  0.00000000E+00 -2.15592665E-03
  0.00000000E+00  1.59015746E-03  0.00000000E+00  0.00000000E+00  3.14083868E-04
  0.00000000E+00  0.00000000E+00  8.11310029E-04  0.00000000E+00 -1.71557934E-04
  0.00000000E+00  2.00589935E-04  0.00000000E+00
END DATA
RHF
