From PySCF
GAUSSIAN              2 MOL ORBITALS     14 PRIMITIVES        2 NUCLEI
  H    1    (CENTRE  1)   0.00000000  0.00000000  0.00000000  CHARGE = 1.0
  H    2    (CENTRE  2)   1.88972612  0.00000000  0.00000000  CHARGE = 1.0
CENTRE ASSIGNMENTS    1  1  1  1  1  1  1  2  2  2  2  2  2  2
TYPE ASSIGNMENTS      1  1  1  1  2  3  4  1  1  1  1  2  3  4
EXPONENTS  1.3010701E+01 1.9622572E+00 4.4453796E-01 1.2194962E-01 8.0000000E-01
EXPONENTS  8.0000000E-01 8.0000000E-01 1.3010701E+01 1.9622572E+00 4.4453796E-01
EXPONENTS  1.2194962E-01 8.0000000E-01 8.0000000E-01 8.0000000E-01
MO  1                     OCC NO =   1.94767193 ORB. ENERGY = 0.0000
 -6.37873835E-02 -1.08211441E-01 -1.23193031E-01 -3.20758087E-02 -1.62316241E-02
  5.28636708E-18  1.94815527E-18 -6.37873835E-02 -1.08211441E-01 -1.23193031E-01
 -3.20758087E-02  1.62316241E-02  4.78387394E-20  1.41912489E-18
MO  2                     OCC NO =   0.05232807 ORB. ENERGY = 0.0000
  1.27627902E-01  2.16513023E-01  2.46488683E-01  4.66719590E-02  7.46875113E-04
  8.69139980E-17 -3.06917314E-17 -1.27627902E-01 -2.16513023E-01 -2.46488683E-01
 -4.66719590E-02  7.46875113E-04  1.11085437E-17 -2.13234824E-18
END DATA
ALDET
From PySCF
CANMO 1
 -6.37873835E-02 -1.08211441E-01 -1.23193031E-01 -3.20758087E-02 -1.62316241E-02
  5.28636708E-18  1.94815527E-18 -6.37873835E-02 -1.08211441E-01 -1.23193031E-01
 -3.20758087E-02  1.62316241E-02  4.78387394E-20  1.41912489E-18
CANMO 2
  1.27627902E-01  2.16513023E-01  2.46488683E-01  4.66719590E-02  7.46875113E-04
  8.69139980E-17 -3.06917314E-17 -1.27627902E-01 -2.16513023E-01 -2.46488683E-01
 -4.66719590E-02  7.46875113E-04  1.11085437E-17 -2.13234824E-18
END DATA
NELACTIVE, NDETS, NORBCORE, NORBACTIVE
     2     2     0     2
COEFFICIENT/ OCCUPIED ACTIVE SPIN ORBITALS
  9.8683127458E-01   1  -1
 -1.6175300776E-01   2  -2
