From PySCF
GAUSSIAN              2 MOL ORBITALS     20 PRIMITIVES        2 NUCLEI
  H    1    (CENTRE  1)   0.00000000  0.00000000  0.00000000  CHARGE = 1.0
  H    2    (CENTRE  2)   1.88972612  0.00000000  0.00000000  CHARGE = 1.0
CENTRE ASSIGNMENTS    1  1  1  1  1  1  1  1  1  1  2  2  2  2  2  2  2  2  2  2
TYPE ASSIGNMENTS      1  1  1  1  2  3  4  2  3  4  1  1  1  1  2  3  4  2  3  4
EXPONENTS  1.3010701E+01 1.9622572E+00 4.4453796E-01 1.2194962E-01 8.0000000E-01
EXPONENTS  8.0000000E-01 8.0000000E-01 1.1704099E-01 1.1704099E-01 1.1704099E-01
EXPONENTS  1.3010701E+01 1.9622572E+00 4.4453796E-01 1.2194962E-01 8.0000000E-01
EXPONENTS  8.0000000E-01 8.0000000E-01 1.1704099E-01 1.1704099E-01 1.1704099E-01
MO  1                     OCC NO =   1.99204306 ORB. ENERGY = 0.0000
  6.60055040E-02  1.11974349E-01  1.27476903E-01  1.47718389E-02 -9.02932948E-14
 -1.42630946E-12  8.04120200E-11  3.72979949E-14 -1.44124619E-12  6.39262988E-11
  6.60055040E-02  1.11974349E-01  1.27476903E-01  1.47718389E-02  4.58098333E-14
  8.69196286E-13 -4.96995477E-11 -3.72883658E-14  1.40727427E-12 -6.19655720E-11
MO  2                     OCC NO =   0.00795694 ORB. ENERGY = 0.0000
 -3.04748487E-09 -5.16987390E-09 -5.88562938E-09  1.41075245E-08  1.10847064E-09
  8.38269190E-03 -4.78802472E-01 -1.51593875E-10  2.37658048E-04 -1.35745531E-02
  3.06496062E-09  5.19952047E-09  5.91938043E-09 -1.41144177E-08 -1.10844445E-09
  8.38269197E-03 -4.78802472E-01  1.51593886E-10  2.37658195E-04 -1.35745528E-02
END DATA
ALDET
From PySCF
CANMO 1
  6.60055040E-02  1.11974349E-01  1.27476903E-01  1.47718389E-02 -9.02932412E-14
 -1.02077025E-12  5.72484369E-11  3.72979876E-14 -1.42974873E-12  6.32695869E-11
  6.60055040E-02  1.11974349E-01  1.27476903E-01  1.47718389E-02  4.58097796E-14
  1.27473551E-12 -7.28631307E-11 -3.72883585E-14  1.41877174E-12 -6.26222839E-11
CANMO 2
 -3.05067809E-09 -5.17529102E-09 -5.89179648E-09  1.41068099E-08  1.10847064E-09
  8.38269190E-03 -4.78802472E-01 -1.51593875E-10  2.37658048E-04 -1.35745531E-02
  3.06176740E-09  5.19410336E-09  5.91321333E-09 -1.41151324E-08 -1.10844445E-09
  8.38269197E-03 -4.78802472E-01  1.51593886E-10  2.37658195E-04 -1.35745528E-02
END DATA
NELACTIVE, NDETS, NORBCORE, NORBACTIVE
     2     4     0     2
COEFFICIENT/ OCCUPIED ACTIVE SPIN ORBITALS
 -9.9800878133E-01   1  -1
  6.3075132838E-02   2  -2
The purged number of dets is : 2
