From PySCF
GAUSSIAN              2 MOL ORBITALS     14 PRIMITIVES        2 NUCLEI
  H    1    (CENTRE  1)   0.00000000  0.00000000  0.00000000  CHARGE = 1.0
  H    2    (CENTRE  2)   1.88972612  0.00000000  0.00000000  CHARGE = 1.0
CENTRE ASSIGNMENTS    1  1  1  1  1  1  1  2  2  2  2  2  2  2
TYPE ASSIGNMENTS      1  1  1  1  2  3  4  1  1  1  1  2  3  4
EXPONENTS  1.3010701E+01 1.9622572E+00 4.4453796E-01 1.2194962E-01 8.0000000E-01
EXPONENTS  8.0000000E-01 8.0000000E-01 1.3010701E+01 1.9622572E+00 4.4453796E-01
EXPONENTS  1.2194962E-01 8.0000000E-01 8.0000000E-01 8.0000000E-01
MO  1                     OCC NO =   1.99366308 ORB. ENERGY = 0.0000
 -6.68443692E-02 -1.13397433E-01 -1.29097010E-01 -1.41865763E-02  7.00071179E-14
  6.55658614E-17  3.54220138E-14 -6.68443692E-02 -1.13397433E-01 -1.29097010E-01
 -1.41865763E-02  6.16934622E-14  1.02674854E-16  5.16558013E-14
MO  2                     OCC NO =   0.00633692 ORB. ENERGY = 0.0000
 -2.21359225E-01 -3.75522547E-01 -4.27512658E-01  9.60855897E-01 -1.60045392E-13
  1.31006897E-15  5.89536535E-14  2.21359225E-01  3.75522547E-01  4.27512658E-01
 -9.60855897E-01 -2.69249119E-13  8.47765498E-16 -7.67331235E-14
END DATA
ALDET
From PySCF
CANMO 1
 -6.68443692E-02 -1.13397433E-01 -1.29097010E-01 -1.41865763E-02  7.00071179E-14
  6.55658614E-17  3.54220138E-14 -6.68443692E-02 -1.13397433E-01 -1.29097010E-01
 -1.41865763E-02  6.16934622E-14  1.02674854E-16  5.16558013E-14
CANMO 2
 -2.21359225E-01 -3.75522547E-01 -4.27512658E-01  9.60855897E-01 -1.60045392E-13
  1.31006897E-15  5.89536535E-14  2.21359225E-01  3.75522547E-01  4.27512658E-01
 -9.60855897E-01 -2.69249119E-13  8.47765498E-16 -7.67331235E-14
END DATA
NELACTIVE, NDETS, NORBCORE, NORBACTIVE
     2     2     0     2
COEFFICIENT/ OCCUPIED ACTIVE SPIN ORBITALS
 -9.9841451356E-01   1  -1
  5.6289067383E-02   2  -2
