From PySCF
GAUSSIAN              4 MOL ORBITALS     28 PRIMITIVES        4 NUCLEI
  H    1    (CENTRE  1)   0.00000000  0.00000000  0.00000000  CHARGE = 1.0
  H    2    (CENTRE  2)   1.88972612  0.00000000  0.00000000  CHARGE = 1.0
  H    3    (CENTRE  3)   3.77945225  0.00000000  0.00000000  CHARGE = 1.0
  H    4    (CENTRE  4)   5.66917837  0.00000000  0.00000000  CHARGE = 1.0
CENTRE ASSIGNMENTS    1  1  1  1  1  1  1  2  2  2  2  2  2  2  3  3  3  3  3  3
CENTRE ASSIGNMENTS    3  4  4  4  4  4  4  4
TYPE ASSIGNMENTS      1  1  1  1  2  3  4  1  1  1  1  2  3  4  1  1  1  1  2  3
TYPE ASSIGNMENTS      4  1  1  1  1  2  3  4
EXPONENTS  1.3010701E+01 1.9622572E+00 4.4453796E-01 1.2194962E-01 8.0000000E-01
EXPONENTS  8.0000000E-01 8.0000000E-01 1.3010701E+01 1.9622572E+00 4.4453796E-01
EXPONENTS  1.2194962E-01 8.0000000E-01 8.0000000E-01 8.0000000E-01 1.3010701E+01
EXPONENTS  1.9622572E+00 4.4453796E-01 1.2194962E-01 8.0000000E-01 8.0000000E-01
EXPONENTS  8.0000000E-01 1.3010701E+01 1.9622572E+00 4.4453796E-01 1.2194962E-01
EXPONENTS  8.0000000E-01 8.0000000E-01 8.0000000E-01
MO  1                     OCC NO =   1.97039674 ORB. ENERGY = 0.0000
 -4.44268803E-02 -7.53675176E-02 -8.58019526E-02 -1.19939997E-02  2.59764029E-08
 -1.33952177E-16  2.46071956E-16 -4.44268803E-02 -7.53675175E-02 -8.58019525E-02
 -1.19939990E-02 -1.96893330E-07 -1.32284352E-17 -3.59539012E-17 -4.44268802E-02
 -7.53675174E-02 -8.58019523E-02 -1.19939996E-02  2.59908128E-08 -1.36379598E-16
  1.88500643E-17 -4.44268801E-02 -7.53675172E-02 -8.58019521E-02 -1.19939990E-02
 -1.96906926E-07  5.60685318E-17  3.06558676E-17
MO  2                     OCC NO =   1.00004168 ORB. ENERGY = 0.0000
 -5.96123883E-02 -1.01128814E-01 -1.15129833E-01 -5.05682721E-02  1.41768035E-02
  3.03438569E-16  2.47848350E-16  5.96123451E-02  1.01128741E-01  1.15129750E-01
  5.05677094E-02  1.41779377E-02  1.43004883E-16  2.24598933E-16  5.96123884E-02
  1.01128814E-01  1.15129833E-01  5.05682740E-02 -1.41768035E-02  1.22851956E-16
 -2.62059220E-17 -5.96123452E-02 -1.01128741E-01 -1.15129750E-01 -5.05677113E-02
 -1.41779377E-02  9.65342678E-17 -9.34366464E-18
MO  3                     OCC NO =   0.99995832 ORB. ENERGY = 0.0000
 -5.96145505E-02 -1.01132482E-01 -1.15134009E-01 -5.05639709E-02 -1.41750199E-02
  1.93933351E-16 -2.66788462E-16 -5.96145938E-02 -1.01132556E-01 -1.15134093E-01
 -5.05645324E-02  1.41738826E-02 -1.54635134E-16 -9.14745619E-17  5.96145506E-02
  1.01132482E-01  1.15134009E-01  5.05639709E-02  1.41750200E-02  1.18708778E-16
 -7.85470734E-17  5.96145939E-02  1.01132556E-01  1.15134093E-01  5.05645325E-02
 -1.41738827E-02 -8.62533487E-17  1.30299410E-17
MO  4                     OCC NO =   0.02960326 ORB. ENERGY = 0.0000
  1.38640416E-01  2.35195088E-01  2.67757230E-01  6.36813308E-01 -3.11120494E-07
  3.87898039E-17  1.05773186E-16 -1.38640418E-01 -2.35195090E-01 -2.67757233E-01
 -6.36813307E-01 -7.43394351E-06 -1.90204251E-16  4.79087344E-17  1.38640416E-01
  2.35195088E-01  2.67757230E-01  6.36813308E-01 -3.10474739E-07  2.12809890E-16
 -9.79362095E-17 -1.38640418E-01 -2.35195090E-01 -2.67757233E-01 -6.36813307E-01
 -7.43332078E-06  1.73955773E-16 -8.24690130E-17
END DATA
ALDET
From PySCF
CANMO 1
 -4.44268014E-02 -7.53673838E-02 -8.58018003E-02 -1.19936478E-02  2.53513821E-08
 -1.33952170E-16  2.46072003E-16 -4.44269590E-02 -7.53676510E-02 -8.58021045E-02
 -1.19943508E-02 -1.97562491E-07 -1.32285459E-17 -3.59538850E-17 -4.44268069E-02
 -7.53673930E-02 -8.58018108E-02 -1.19936525E-02  2.66154923E-08 -1.36379487E-16
  1.88500118E-17 -4.44269536E-02 -7.53676418E-02 -8.58020940E-02 -1.19943463E-02
 -1.96245925E-07  5.60686230E-17  3.06558227E-17
CANMO 2
 -5.96122073E-02 -1.01128507E-01 -1.15129484E-01 -5.05681156E-02  1.41768469E-02
  3.03437970E-16  2.47849178E-16  5.96125250E-02  1.01129046E-01  1.15130097E-01
  5.05678613E-02  1.41778943E-02  1.43005355E-16  2.24599212E-16  5.96122044E-02
  1.01128502E-01  1.15129478E-01  5.05681210E-02 -1.41768469E-02  1.22851587E-16
 -2.62056811E-17 -5.96125302E-02 -1.01129055E-01 -1.15130107E-01 -5.05678689E-02
 -1.41778943E-02  9.65345350E-17 -9.34370343E-18
CANMO 3
 -5.96147299E-02 -1.01132787E-01 -1.15134355E-01 -5.05641114E-02 -1.41749765E-02
  1.93934281E-16 -2.66787701E-16 -5.96144145E-02 -1.01132252E-01 -1.15133746E-01
 -5.05643920E-02  1.41739260E-02 -1.54634701E-16 -9.14738735E-17  5.96147361E-02
  1.01132797E-01  1.15134367E-01  5.05641399E-02  1.41749766E-02  1.18709158E-16
 -7.85471558E-17  5.96144083E-02  1.01132241E-01  1.15133734E-01  5.05643635E-02
 -1.41739261E-02 -8.62530493E-17  1.30299106E-17
CANMO 4
  1.38640442E-01  2.35195132E-01  2.67757280E-01  6.36813316E-01 -3.10854122E-07
  3.87898720E-17  1.05773056E-16 -1.38640392E-01 -2.35195047E-01 -2.67757184E-01
 -6.36813300E-01 -7.43431204E-06 -1.90204241E-16  4.79087554E-17  1.38640439E-01
  2.35195127E-01  2.67757275E-01  6.36813313E-01 -3.10741139E-07  2.12809961E-16
 -9.79362180E-17 -1.38640395E-01 -2.35195051E-01 -2.67757189E-01 -6.36813301E-01
 -7.43295203E-06  1.73955744E-16 -8.24690301E-17
END DATA
NELACTIVE, NDETS, NORBCORE, NORBACTIVE
     4    36     0     4
COEFFICIENT/ OCCUPIED ACTIVE SPIN ORBITALS
 -6.9720534242E-01   1   2  -1  -2
  6.9717553531E-01   1   3  -1  -3
  9.3271529309E-02   2   3  -1  -4
  9.3271529309E-02   1   4  -2  -3
  4.6635960515E-02   2   4  -1  -3
  4.6635960515E-02   1   3  -2  -4
 -4.6635438449E-02   1   2  -3  -4
 -4.6635438449E-02   3   4  -1  -2
  2.9600596734E-02   2   4  -2  -4
 -2.9598612197E-02   3   4  -3  -4
The purged number of dets is : 10
