[Molden Format]
made by pyscf v[1.6]
[Atoms] (AU)
O   1   8     0.00000000000000     0.00000000000000     0.22365097656840
H   2   1     0.00000000000000     1.43843495957931    -0.88765160386132
H   3   1     0.00000000000000    -1.43843495957931    -0.88765160386132
[GTO]
1 0
 s    1 1.00
         8897.19445619                   1
 s    1 1.00
          1365.2653881                   1
 s    1 1.00
          311.21828724                   1
 s    1 1.00
           86.33353862                   1
 s    1 1.00
           27.42841118                   1
 s    1 1.00
            9.74740298                   1
 s    1 1.00
             3.7710995                   1
 s    1 1.00
            1.04455407                   1
 s    1 1.00
            0.30382295                   1
 p    1 1.00
           34.75998468                   1
 p    1 1.00
            7.80757529                   1
 p    1 1.00
            2.29096903                   1
 p    1 1.00
            0.71677956                   1
 p    1 1.00
            0.21323853                   1
 d    1 1.00
            1.25011953                   1

2 0
 s    1 1.00
           12.98511484                   1
 s    1 1.00
            1.95908134                   1
 s    1 1.00
            0.44403649                   1
 s    1 1.00
            0.11282695                   1
 p    1 1.00
            0.80305095                   1

3 0
 s    1 1.00
           12.98511484                   1
 s    1 1.00
            1.95908134                   1
 s    1 1.00
            0.44403649                   1
 s    1 1.00
            0.11282695                   1
 p    1 1.00
            0.80305095                   1

[5d]
[9g]


[MO]
 Sym= A
 Ene=               0
 Spin= Alpha
 Occup=    0.76603
   1    1.0160552589199e-06
   2    1.5102799093775e-06
   3    -5.2578203261472e-06
   4    -5.036666286976e-06
   5    1.4262606995382e-05
   6    2.4113366660855e-05
   7    -4.6099948993996e-05
   8    -5.9935082562983e-05
   9    0.00014321783474475
  10    0.00011457340849909
  11    -0.00019159795131704
  12    -0.00052407874699428
  13    0.0008906979637235
  14    -0.00068485676652993
  15    -0.0014382355081793
  16    0.00062659397288857
  17    0.00041841186730147
  18    0.0070296996738078
  19    -0.00021519712635785
  20    -3.2565501502285e-05
  21    -1.4828723586016e-05
  22    0.00019154861964987
  23    2.1934562319105e-05
  24    0.00031407384265497
  25    0.00074008880408992
  26    -0.0089548099518307
  27    0.00061308549814496
  28    0.00041728635423291
  29     0.012859056611561
  30    -0.015596562467707
  31     0.051866889032663
  32    0.0016876012419862
  33    0.0030000026398161
  34    -0.035884512072173
  35    0.0027777730189097
  36    -0.063156503016197
  37      0.20248433714504
  38    0.0093854952447568
  39     0.011726471520981
  40     -0.14116334340892
  41    0.0069609692383074
  42     -0.24708258125451
  43    -0.083905811556305
 Sym= A
 Ene=               1
 Spin= Alpha
 Occup=    0.76603
   1    1.6729750666373e-06
   2    1.1626179683326e-06
   3    -5.7602247725184e-06
   4    -5.7571691803651e-06
   5    2.6521657813931e-05
   6    1.6600610963122e-05
   7    -6.6951372478774e-05
   8    -5.1956855830379e-05
   9    0.00013332808008405
  10    0.00015490401422755
  11    -0.00056491518345939
  12    -0.00024080111368048
  13    -0.0006281370296459
  14    0.00082449068426781
  15    0.00051445431566634
  16    -0.0013791232477809
  17    0.0073707696310016
  18    0.0011020553148951
  19    1.3123398381731e-05
  20    0.00021289499332009
  21    0.00031388914322925
  22    4.1416038687092e-05
  23    0.00019442417638623
  24    1.4944351339136e-05
  25    -0.015586690833345
  26    -0.00043183086421419
  27    -0.012850651803099
  28    -0.0089499969236034
  29    0.00060563811523135
  30    -0.00073823423658158
  31    0.0032616752292391
  32    -0.051909138180207
  33    -0.063115970347606
  34    -0.00057765001629099
  35    -0.035758464686955
  36    -0.0029861531124941
  37    0.0098164940248311
  38     -0.20237759784952
  39     -0.24692569078374
  40    -0.0064082058111323
  41     -0.14105150022564
  42    -0.011693199676524
  43    -0.0040550804893724
 Sym= A
 Ene=               2
 Spin= Alpha
 Occup=    0.82423
   1    -0.00014386599961081
   2    -0.00018193807673721
   3    0.0010273701042084
   4    0.00081131141800258
   5    -0.0017273428863944
   6    -0.0026929103077767
   7    0.0074148595655752
   8    0.0078579408960184
   9    -0.030200539400215
  10    -0.021028077775298
  11    0.0014625981496013
  12     0.044973206694759
  13     -0.32416612937673
  14     -0.06230454309655
  15      0.49601638917417
  16      0.13105558804841
  17      0.38129753355868
  18     -0.45388799663019
  19    0.00023772190028234
  20      0.00178898015858
  21    -8.4409996610309e-06
  22    0.00038948154979008
  23    -0.0024584444491291
  24    -1.1332275066134e-05
  25    -0.00017212745538369
  26    -0.0077845849303923
  27    0.0016592161520629
  28    -0.0022051356672382
  29    -0.0055235341195451
  30    -0.00021462496628714
  31    -0.011891465174028
  32     0.068761068892652
  33    -0.0011740615890538
  34    -0.015688334965977
  35    -0.095904527598775
  36    -0.0014722764718788
  37     -0.16137392873115
  38     0.075297554645224
  39    -0.0031246281494301
  40     -0.22701952566963
  41       -0.104245174448
  42    -0.0040617123257428
  43    -0.058449919122461
 Sym= A
 Ene=               3
 Spin= Alpha
 Occup=    0.82423
   1    -0.00012498195675669
   2    -3.2454999865174e-05
   3    0.00022989269876483
   4    0.00065002061612045
   5    -0.0021898828998657
   6    4.2946735094208e-05
   7    0.0043774995545835
   8    0.0029777300350802
   9    -0.002900715737837
  10    -0.021595502185532
  11     0.059931396916653
  12    -0.036897774549118
  13      0.18950867968273
  14       -0.368506827328
  15     -0.24177795932968
  16      0.53408297739994
  17     -0.93668827952787
  18      0.87967688931012
  19    -0.0026225840701409
  20    -0.0018218801887467
  21    -7.610795734284e-06
  22    -0.0036570822750238
  23    0.0025853489481406
  24    -1.844604256614e-06
  25    -0.00013393705358035
  26    0.0035931142721284
  27    0.0057770827371599
  28    -0.0082549346758196
  29    0.0024213939843486
  30    -5.1471999976026e-05
  31    -0.083032838691302
  32    -0.042692042360689
  33    -0.00092408470158591
  34     -0.11656849219726
  35     0.060711799178908
  36    -0.00034415772321827
  37     0.034448789572204
  38      0.14613916056107
  39    -0.0026467948789916
  40     0.050741371845912
  41     -0.20701335435513
  42    -0.00079437961056595
  43     0.029418958024341
 Sym= A
 Ene=               4
 Spin= Alpha
 Occup=    0.98625
   1    2.5762819044373e-06
   2    1.8933932222238e-06
   3    -1.0915521861395e-05
   4    -6.5832494924317e-06
   5    3.8747354789512e-05
   6    2.9953695806191e-05
   7    -0.00010959277707987
   8    -7.5984180861787e-05
   9    0.0002765737176278
  10    0.00015310888614357
  11    -0.00067940613539431
  12    -0.00063265528776074
  13    0.00044262656259385
  14    -0.00067066329856955
  15    -0.0013477799466546
  16    0.0005119543404888
  17    0.0088069614416964
  18    0.0083578814936377
  19    -0.0013446059185296
  20    7.4502298053329e-05
  21    -0.00011884770608778
  22    0.00097974004054249
  23    0.00010602409388764
  24    -0.0016154987609639
  25    -0.00076920778390092
  26    0.0060372644434464
  27    0.00064576662408827
  28    0.00043670982111153
  29    -0.0087166893846992
  30    -0.010467756885074
  31    -0.090456122942349
  32    0.0058159235528942
  33    -0.0081883657470246
  34     0.065878459277881
  35    0.0060272488079168
  36     -0.11136592930363
  37     -0.20581946957746
  38     0.014921402682323
  39    -0.018423681004367
  40      0.14598730078538
  41     0.011043101614841
  42     -0.25060973198233
  43     -0.18437897065735
 Sym= A
 Ene=               5
 Spin= Alpha
 Occup=    0.98625
   1    -1.5986069030466e-06
   2    -2.3096769046029e-06
   3    5.261575677424e-06
   4    1.0019860657965e-05
   5    -2.559337213038e-05
   6    -3.4514491987236e-05
   7    6.3212814206786e-05
   8    9.9007079196808e-05
   9    -0.00011889946240674
  10    -0.00025647996099392
  11    0.00056175680718647
  12    0.00058606975243823
  13    0.00077053787378356
  14    -0.0005449722338092
  15    -0.00074070107655808
  16    0.0014352822458891
  17    -0.007442386485907
  18    -0.0076284157162041
  19    -0.00012479751343784
  20    -0.0013461994233802
  21    0.0016129790039597
  22    3.663138380455e-05
  23    -0.00097307671022435
  24    -0.00011915109702977
  25     0.010451494743886
  26    0.00045308168733047
  27    -0.0087024935245239
  28    -0.0060289486867802
  29    -0.00063817671945151
  30    -0.00077296319166068
  31    -0.0075518371078253
  32    -0.090442152043797
  33      0.11119258491067
  34    0.0036196092519981
  35    -0.065597016634669
  36    -0.0082185045870309
  37    -0.015411354831567
  38     -0.20553329903007
  39      0.25021967338079
  40     0.010449036096816
  41     -0.14571285723451
  42    -0.018497247136001
  43    -0.013507062078257
 Sym= A
 Ene=               6
 Spin= Alpha
 Occup=    0.99491
   1    -9.7357568081956e-05
   2    0.00014424352528197
   3    0.00095041970580445
   4    -0.00047061347011625
   5    -0.00090007335269048
   6    0.0023137576162472
   7    0.0058097049217391
   8    -0.0056915574087158
   9    -0.029350214939715
  10     0.010575973434412
  11    -0.021320635500035
  12    -0.050999516484026
  13     -0.40359002351525
  14    -0.072695210196414
  15      0.59809246234164
  16     0.070560726250567
  17      0.75561415102911
  18      0.68802596579218
  19    0.0012931483613272
  20    -0.0021503047514378
  21    5.0707861988699e-06
  22    0.0018234185813738
  23    0.0029817486898641
  24    4.7943724586959e-06
  25    0.00010980416926999
  26    -0.0092840191148835
  27    0.00055799424528809
  28    -0.00093660583368443
  29    -0.0065890229370297
  30    9.0822760039866e-05
  31     0.021191398790307
  32    -0.073305740913819
  33    0.00074559974742697
  34     0.029669334364993
  35      0.10260922473076
  36    0.00061645805284565
  37     -0.17688265713378
  38    -0.014371053397731
  39    0.0019293832801742
  40     -0.25030283198847
  41     0.018276405815736
  42    0.0017512262068747
  43    -0.067789675850232
 Sym= A
 Ene=               7
 Spin= Alpha
 Occup=    0.99491
   1    0.0001558736590173
   2    -0.00010473811589397
   3    -0.00054723825237574
   4    0.00097880703154248
   5    0.0024600688525553
   6    -0.0010199138566482
   7    -0.0062709403597264
   8    0.0061195001509264
   9     0.012790722175142
  10    -0.030170685458724
  11    -0.051687909186707
  12    -0.019576948419408
  13     -0.05104871080134
  14     -0.39809792876815
  15     0.036974756697286
  16      0.59300503874114
  17      0.66946502850541
  18       0.7125219350768
  19    0.0021573361480817
  20    -0.0011592339362035
  21    4.4836049708071e-06
  22     0.002989657643683
  23    0.0016376553037616
  24    4.9812769926529e-06
  25    8.4152613859333e-05
  26    -0.00040904211829217
  27    0.0065442225914287
  28    -0.0092115403075981
  29    -0.00017931708405328
  30    0.00010865439503097
  31     0.074938299832045
  32    -0.016666474263617
  33    0.00057104748760802
  34       0.1048939564784
  35     0.023335387112395
  36    0.00073781202922951
  37     0.025708912057149
  38      0.17754742552236
  39    0.0016339819552036
  40     0.034238212186996
  41     -0.25111615844482
  42    0.0018997307410034
  43    -0.005240782783204
 Sym= A
 Ene=               8
 Spin= Alpha
 Occup=    1.00000
   1    -0.00068584867927005
   2    4.2746799497612e-06
   3    -0.00034459052924126
   4    2.9769198540359e-06
   5    -0.010673939525506
   6    6.6578768163668e-05
   7     0.016398992677175
   8    -9.8921829911637e-05
   9      0.10549141155047
  10    -0.00070414753544427
  11      0.71721901870121
  12    -0.0046098511171732
  13     -0.27450918304372
  14    0.0017824281544584
  15     0.014667564198646
  16    -4.9429438252929e-05
  17    -0.018691950702607
  18    -0.00050216506781924
  19    0.00022134389080908
  20    3.6144092269949e-06
  21    -4.8005100291848e-09
  22    0.00031369142190913
  23    -5.0487110091063e-06
  24    -3.4962231541409e-08
  25    -1.1378643596744e-07
  26    -0.0018567903535579
  27    -7.7792392381935e-06
  28    1.1177474938291e-05
  29    -0.0013122891941165
  30     7.38750378746e-09
  31    0.0011336911672931
  32    8.6349034662403e-05
  33    -7.6289730929072e-07
  34    0.0016042864488346
  35    -0.0001209712769972
  36    -6.0021045502969e-07
  37    -0.00070575829563537
  38    4.9089774125321e-05
  39    -1.9548714605026e-06
  40    -0.00099720317223663
  41    -6.7178594465781e-05
  42    -2.6109017350725e-06
  43    0.0017748824136711
 Sym= A
 Ene=               9
 Spin= Alpha
 Occup=    1.00000
   1    -4.5811466316946e-05
   2    -6.6748645746179e-05
   3    -2.2334355631534e-05
   4    -3.6287956888569e-05
   5    -0.00071302511885287
   6    -0.0010405079652401
   7    0.0010981681679057
   8    0.0015864057365698
   9    0.0070058018591257
  10     0.010388797665873
  11     0.047783839175806
  12     0.070140894062385
  13    -0.018196769008482
  14    -0.025713892049434
  15    0.00091715284420524
  16    -0.00021129140146003
  17    -0.0020257294292488
  18    -0.003900770887925
  19    1.2240762838361e-05
  20    -1.8090159096695e-05
  21    -1.2414799886706e-08
  22    1.7425033849865e-05
  23    2.5649483709302e-05
  24    -8.1303252560348e-09
  25    -1.2549075885829e-07
  26    -0.00012282682507028
  27    0.00011014911299326
  28    -0.00015587956537952
  29    -8.6931868384202e-05
  30    -1.2578513582309e-07
  31    -1.0308709590085e-05
  32    -5.2956878033689e-05
  33    -1.0013867029348e-06
  34    -1.3270535969267e-05
  35    7.5699892900404e-05
  36    -8.9722748037728e-07
  37    -7.1195947672041e-05
  38    -0.00041724462281569
  39    -2.804729005339e-06
  40    -9.8215781307805e-05
  41    0.00059130922382121
  42    -2.3863999810967e-06
  43    0.00012596252019022
