[Molden Format]
made by pyscf v[1.6]
[Atoms] (AU)
O   1   8     0.00000000000000     0.00000000000000     0.22365097656840
H   2   1     0.00000000000000     1.43843495957931    -0.88765160386132
H   3   1     0.00000000000000    -1.43843495957931    -0.88765160386132
[GTO]
1 0
 s    1 1.00
         8897.19445619                   1
 s    1 1.00
          1365.2653881                   1
 s    1 1.00
          311.21828724                   1
 s    1 1.00
           86.33353862                   1
 s    1 1.00
           27.42841118                   1
 s    1 1.00
            9.74740298                   1
 s    1 1.00
             3.7710995                   1
 s    1 1.00
            1.04455407                   1
 s    1 1.00
            0.30382295                   1
 p    1 1.00
           34.75998468                   1
 p    1 1.00
            7.80757529                   1
 p    1 1.00
            2.29096903                   1
 p    1 1.00
            0.71677956                   1
 p    1 1.00
            0.21323853                   1
 d    1 1.00
            1.25011953                   1

2 0
 s    1 1.00
           12.98511484                   1
 s    1 1.00
            1.95908134                   1
 s    1 1.00
            0.44403649                   1
 s    1 1.00
            0.11282695                   1
 p    1 1.00
            0.80305095                   1

3 0
 s    1 1.00
           12.98511484                   1
 s    1 1.00
            1.95908134                   1
 s    1 1.00
            0.44403649                   1
 s    1 1.00
            0.11282695                   1
 p    1 1.00
            0.80305095                   1

[5d]
[9g]


[MO]
 Sym= A
 Ene=               0
 Spin= Alpha
 Occup=    0.76603
   1    2.699697935724e-07
   2    -5.9717081308458e-07
   3    1.6816895692529e-06
   4    -3.806813867275e-06
   5    8.556986245722e-06
   6    -1.8704546061848e-05
   7    3.2849113675421e-05
   8    -7.585838212287e-05
   9    9.5000072454987e-05
  10    -0.00020538298912661
  11    0.00015657072027533
  12    -0.00040543005136032
  13    9.0756947158237e-05
  14    -0.00010564556745959
  15    -0.00050374152258078
  16    0.0011508660058623
  17    -6.6279796230421e-05
  18    0.0021426308086196
  19    0.0068402338958571
  20    0.00027153610107677
  21    0.00039255940273989
  22    -0.0047187429436687
  23    0.00029632294927487
  24    -0.0082685372556633
  25     0.002401421994552
  26    -0.028865197684402
  27     0.001648393653689
  28    0.0018142660331643
  29      0.04155625004659
  30    -0.050579886592771
  31      0.12994491723184
  32     0.005145413767602
  33    0.0075262409388073
  34    -0.090453834700892
  35    0.0056984886729877
  36     -0.15852342011949
  37       0.2034025282216
  38    0.0081145887302115
  39     0.011801895192219
  40     -0.14186970435952
  41    0.0088512454536836
  42     -0.24857815904802
  43     0.098310250805589
 Sym= A
 Ene=               1
 Spin= Alpha
 Occup=    0.76603
   1    -5.9646398794915e-07
   2    2.1590097133744e-07
   3    -3.8061252829036e-06
   4    1.3365271900447e-06
   5    -1.8672702927792e-05
   6    6.8624121323915e-06
   7    -7.5910126634079e-05
   8    2.5937819733655e-05
   9    -0.00020494174157798
  10    7.6202622895505e-05
  11    -0.00040758778756486
  12    0.00011862218192962
  13    -0.00010137542642499
  14    8.1057522702081e-05
  15    0.0011514390131397
  16    -0.00039232896877594
  17    0.0022278870268842
  18    0.00014213871423803
  19    0.00037908358361786
  20    -0.0068410533723122
  21    -0.0082632663914368
  22    -0.00014785474979116
  23    -0.0047088306952896
  24    -0.00039116597830743
  25    -0.050547632010316
  26    -0.00090276043467762
  27    -0.041561358034341
  28    -0.028804403718485
  29    0.0023043492592817
  30    -0.0023927405811997
  31    0.0072150585448093
  32     -0.12996175069904
  33     -0.15842234366897
  34    -0.0028151976463896
  35     -0.09026206663049
  36    -0.0074992431079218
  37     0.011230652915237
  38       -0.203423064812
  39     -0.24841964923571
  40    -0.0045054876633025
  41     -0.14157723797807
  42    -0.011759332446244
  43    0.0059310318426088
 Sym= A
 Ene=               2
 Spin= Alpha
 Occup=    0.82423
   1    -0.0001396950892185
   2    -1.5084097932186e-06
   3    -0.00087891567369857
   4    -5.2545955121086e-06
   5    -0.0044054091668499
   6    -5.8243710049401e-05
   7    -0.017319359499808
   8    -2.8942273650419e-05
   9    -0.048682944498361
  10    -0.00073520589870959
  11    -0.086953308367149
  12    0.0020329535695139
  13    -0.037157749602844
  14    -0.0048792834076969
  15      0.26425490910886
  16    0.00032763767008338
  17      0.20921608320074
  18     -0.10423141781306
  19    -0.0026474275782566
  20    0.0053519762988598
  21    -0.00012293908260918
  22    -0.0036384167894082
  23    -0.0073995411722112
  24    -0.00015508142698951
  25    -0.00076262086769719
  26    -0.021609124996524
  27     0.032461515595679
  28     -0.04516738253601
  29    -0.015640842264755
  30    -0.00096010760773578
  31    -0.050832798108962
  32      0.10295520313029
  33    -0.0023775973600994
  34    -0.070467890369436
  35     -0.14363197467762
  36    -0.0029982328459947
  37    -0.076749591571276
  38       0.1550777566031
  39    -0.0037397518006972
  40     -0.10648871629011
  41     -0.21659165344406
  42    -0.0047074085978097
  43    -0.048466668321188
 Sym= A
 Ene=               3
 Spin= Alpha
 Occup=    0.82423
   1    0.0001165148004642
   2    -0.00018168497014617
   3    0.00073879073414406
   4    -0.0011466413367013
   5    0.0036596842266199
   6    -0.0057198676145691
   7     0.014655514461775
   8    -0.022648442130178
   9      0.04029150083548
  10    -0.063060117595598
  11     0.076415412989236
  12     -0.11525074449678
  13     0.024859344055967
  14    -0.044351249279274
  15     -0.22288334961624
  16      0.34331283232542
  17     -0.31791418338994
  18      0.36018625594298
  19    -0.0050077173628541
  20    -0.0010843359728454
  21    -9.7969307523944e-05
  22    -0.0069420365792583
  23    0.0015275713757335
  24    -3.5258240108971e-05
  25    -0.0006052467032121
  26    -0.042881833988371
  27    -0.0071185801834232
  28     0.010104559189138
  29    -0.030725597321505
  30    -0.00022032473087934
  31    -0.096412471389582
  32    -0.020980878559159
  33    -0.0018933959828252
  34      -0.1348829713958
  35     0.029852639046215
  36    -0.00068271957449095
  37     -0.14506878262842
  38    -0.031365856011682
  39    -0.002967011289408
  40     -0.20320750326312
  41     0.044722643881717
  42    -0.0010810890371703
  43     -0.12072915274418
 Sym= A
 Ene=               4
 Spin= Alpha
 Occup=    0.98625
   1    -1.8602072118463e-07
   2    -6.5217890745181e-07
   3    -1.2358557689936e-06
   4    -4.1632668119882e-06
   5    -5.6957394531211e-06
   6    -2.0412895723205e-05
   7    -2.5442782071957e-05
   8    -8.306175360822e-05
   9    -6.1033019883225e-05
  10    -0.00022401316334343
  11    -0.00015963312237602
  12    -0.00044683655006371
  13    2.0244803956983e-05
  14    -0.00010928523727604
  15    0.00038147460591048
  16    0.0012607909201479
  17    0.0020424235566154
  18    0.0024902505122079
  19    -0.0085042709691744
  20    0.00056846903387296
  21    -0.00076066280238712
  22    0.0060864745208085
  23    0.00052753762217406
  24     -0.01034670284975
  25    -0.0047406636277399
  26     0.037917158488535
  27     0.003524225670182
  28    0.0032792339231629
  29    -0.052643997972163
  30    -0.064483321384591
  31     -0.16386361144816
  32     0.010954855873637
  33    -0.014792497356803
  34      0.11835989762741
  35     0.010256601626538
  36     -0.20120958067323
  37     -0.25718460870614
  38     0.017264483491607
  39    -0.023246857596491
  40      0.18585348648047
  41     0.016008052536743
  42     -0.31620781104387
  43     -0.22566851097141
 Sym= A
 Ene=               5
 Spin= Alpha
 Occup=    0.98625
   1    6.5694544327755e-07
   2    8.2801463288054e-08
   3    4.1863250007616e-06
   4    5.7821684040633e-07
   5    2.058103225657e-05
   6    2.4660801128026e-06
   7    8.3398222685303e-05
   8    1.2390996664215e-05
   9    0.00022605189986875
  10    2.5941923300544e-05
  11    0.00044506154665382
  12    9.150369040059e-05
  13    0.00011781939417026
  14    -3.7646329540208e-05
  15     -0.00126562486779
  16    -0.00019583002071358
  17    -0.0023052656082263
  18    -0.0016862707372782
  19    -0.00068723328293871
  20    -0.0084996935599141
  21     0.010330603171253
  22    0.00036518278126862
  23    -0.0060649003217278
  24    -0.00076365852937514
  25     0.064382985152227
  26    0.0022825390322324
  27    -0.052614863081938
  28     -0.03778384923129
  29     -0.00424869017823
  30    -0.0047592996020948
  31    -0.013240436767882
  32     -0.16377518369425
  33      0.20089648961596
  34    0.0071036836486708
  35     -0.11794068900629
  36     -0.01485057070411
  37    -0.020706618819592
  38     -0.25703508620468
  39      0.31571578931753
  40     0.011256588628208
  41     -0.18520997555384
  42    -0.023338251803113
  43    -0.018034043182454
 Sym= A
 Ene=               6
 Spin= Alpha
 Occup=    0.99491
   1    -0.0001861070651492
   2    -6.0775315023022e-05
   3    -0.0011732242299898
   4    -0.00038720387654203
   5    -0.0058640031124412
   6    -0.0019041679986261
   7    -0.023167491913045
   8    -0.0077119722988242
   9    -0.064818017853068
  10    -0.020913687951202
  11     -0.11775238756697
  12    -0.041105992989199
  13    -0.047287079738688
  14    -0.010984923413576
  15      0.35570583028419
  16      0.11700157629103
  17       0.3373587176589
  18      0.21203476211886
  19    -0.00068229705914569
  20    -0.0049405956044839
  21    7.7728192245135e-05
  22    -0.00097195819425079
  23    0.0068387435343718
  24    6.5525839159123e-05
  25    0.00048289308329977
  26    -0.0051330128741854
  27    -0.030151765421644
  28      0.04201049205486
  29    -0.0035654468482049
  30    0.00040498191379256
  31    -0.012974101942258
  32    -0.095083713242353
  33    0.0015036240172354
  34    -0.018666550683169
  35      0.13281462694858
  36     0.001266797764237
  37    -0.019747493462491
  38     -0.14314146745185
  39     0.002368532610839
  40    -0.028480188605135
  41      0.20017821903344
  42    0.0019927064862872
  43    6.9736511979369e-05
 Sym= A
 Ene=               7
 Spin= Alpha
 Occup=    0.99491
   1    -5.1790006349063e-05
   2    -0.00018459913552049
   3    -0.0003307263399502
   4    -0.0011633578123868
   5    -0.0016206630867533
   6    -0.005815920837011
   7    -0.0065999615160866
   8    -0.022950148182083
   9    -0.017778996091202
  10    -0.064163106172799
  11    -0.035549184357275
  12     -0.11595839462751
  13    -0.0085348335022392
  14    -0.046858694214269
  15      0.10001775228294
  16      0.34808576204057
  17      0.19995549486208
  18      0.32394136457175
  19    0.0051790591325928
  20    0.00098431241762751
  21    6.0796750312044e-05
  22    0.0071704966332818
  23    -0.0013899499961863
  24    7.6839471358184e-05
  25    0.00037559937292756
  26     0.043997476836039
  27    0.0054094435996658
  28    -0.0077019375652719
  29     0.031570653394744
  30    0.00047749985420829
  31     0.099663628133073
  32     0.018790990780861
  33    0.0011753109119532
  34      0.13924501268254
  35    -0.026790733701827
  36    0.0014864793709647
  37       0.1500493523827
  38     0.028504723097221
  39    0.0018485864126493
  40      0.20989117946114
  41    -0.040725373455386
  42    0.0023416948237867
  43      0.11958458517387
 Sym= A
 Ene=               8
 Spin= Alpha
 Occup=    1.00000
   1    0.0012441698200344
   2    -8.0597800104425e-06
   3    0.0077871429350118
   4    -5.0439424618388e-05
   5     0.038576473977972
   6    -0.00024989712728953
   7      0.14438260382087
   8    -0.00093489720846822
   9       0.3594778730391
  10    -0.0023272255383064
  11      0.44295911545303
  12    -0.0028582150564101
  13       0.1541313040852
  14    -0.00099965000676531
  15     0.004305684066556
  16    -8.6092327829294e-05
  17    -0.00082337112042658
  18    -0.00016479782358972
  19    -0.00012110642839527
  20    4.9803772505193e-06
  21    -7.9486095557164e-08
  22    -0.00017085063831779
  23    -6.879509180276e-06
  24    -7.4026317010042e-08
  25    -4.9459250628976e-07
  26    -0.00096353976902716
  27    3.0645124812455e-05
  28    -4.2643057370998e-05
  29    -0.00068116148631771
  30    -3.7324756273505e-07
  31    -0.0001414659287682
  32    0.00011005164096605
  33    -1.5366516981376e-06
  34    -0.00019911592069027
  35    -0.00015384127592317
  36    -1.5686359028188e-06
  37    8.9009613537037e-05
  38    0.00016768335557721
  39    -2.4179342599445e-06
  40    0.00012762509345958
  41    -0.00023472396605967
  42    -2.876982751086e-06
  43    4.2184746722724e-05
 Sym= A
 Ene=               9
 Spin= Alpha
 Occup=    1.00000
   1    8.2852452984173e-05
   2    0.00012208466596811
   3    0.00051857349063706
   4    0.00076413960202411
   5    0.0025689256786119
   6    0.0037855894160767
   7    0.0096155215891018
   8     0.014171916260051
   9     0.023942061458305
  10      0.03530427252593
  11     0.029518672221711
  12     0.043607053222863
  13     0.010267087569854
  14     0.015190820612198
  15    0.00016284967343513
  16    -0.00055690680247472
  17    -0.00029148193341109
  18    -0.0010070982788548
  19    -1.3924090088278e-05
  20    9.9356456906115e-06
  21    -1.0439618318366e-07
  22    -1.9488779779873e-05
  23    -1.3979013891732e-05
  24    -9.4255204617651e-08
  25    -6.3787716116872e-07
  26    -0.00011396307905799
  27    5.6617238421103e-05
  28    -7.9776656076313e-05
  29    -8.109724443326e-05
  30    -5.7988175341567e-07
  31    -0.00012229168801818
  32    -2.228625075981e-05
  33    -2.0346631088574e-06
  34    -0.00017094264615228
  35    3.2697720882173e-05
  36    -1.8324479469055e-06
  37    -0.00016401612015735
  38    -6.3647369104758e-05
  39    -3.2459283861325e-06
  40    -0.00022919721997365
  41    9.203214079135e-05
  42    -2.9136146871229e-06
  43    -0.00013307462459722
