From PySCF
GAUSSIAN              7 MOL ORBITALS    310 PRIMITIVES        2 NUCLEI
  C    1    (CENTRE  1)   0.00000000  0.00000000 -1.21327220  CHARGE = 6.0
  O    2    (CENTRE  2)   0.00000000  0.00000000  0.90995415  CHARGE = 8.0
CENTRE ASSIGNMENTS    1  1  1  1  1  1  1  1  1  1  1  1  1  1  1  1  1  1  1  1
CENTRE ASSIGNMENTS    1  1  1  1  1  1  1  1  1  1  1  1  1  1  1  1  1  1  1  1
CENTRE ASSIGNMENTS    1  1  1  1  1  1  1  1  1  1  1  1  1  1  1  1  1  1  1  1
CENTRE ASSIGNMENTS    1  1  1  1  1  1  1  1  1  1  1  1  1  1  1  1  1  1  1  1
CENTRE ASSIGNMENTS    1  1  1  1  1  1  1  1  1  1  1  1  1  1  1  1  1  1  1  1
CENTRE ASSIGNMENTS    1  1  1  1  1  1  1  1  1  1  1  1  1  1  1  1  1  1  1  1
CENTRE ASSIGNMENTS    1  1  1  1  1  1  1  1  1  1  1  1  1  1  1  1  1  1  1  1
CENTRE ASSIGNMENTS    1  1  1  1  1  1  1  1  1  1  1  1  1  1  1  2  2  2  2  2
CENTRE ASSIGNMENTS    2  2  2  2  2  2  2  2  2  2  2  2  2  2  2  2  2  2  2  2
CENTRE ASSIGNMENTS    2  2  2  2  2  2  2  2  2  2  2  2  2  2  2  2  2  2  2  2
CENTRE ASSIGNMENTS    2  2  2  2  2  2  2  2  2  2  2  2  2  2  2  2  2  2  2  2
CENTRE ASSIGNMENTS    2  2  2  2  2  2  2  2  2  2  2  2  2  2  2  2  2  2  2  2
CENTRE ASSIGNMENTS    2  2  2  2  2  2  2  2  2  2  2  2  2  2  2  2  2  2  2  2
CENTRE ASSIGNMENTS    2  2  2  2  2  2  2  2  2  2  2  2  2  2  2  2  2  2  2  2
CENTRE ASSIGNMENTS    2  2  2  2  2  2  2  2  2  2  2  2  2  2  2  2  2  2  2  2
CENTRE ASSIGNMENTS    2  2  2  2  2  2  2  2  2  2
TYPE ASSIGNMENTS      1  1  1  1  1  1  1  1  1  1  1  1  1  2  2  2  2  3  3  3
TYPE ASSIGNMENTS      3  4  4  4  4  2  3  4  2  3  4  2  3  4  2  3  4  2  3  4
TYPE ASSIGNMENTS      5  5  8  8  9  9  6  6 10 10  7  7  5  8  9  6 10  7  5  8
TYPE ASSIGNMENTS      9  6 10  7  5  8  9  6 10  7 11 11 14 14 15 15 17 17 20 20
TYPE ASSIGNMENTS     18 18 12 12 16 16 19 19 13 13 11 14 15 17 20 18 12 16 19 13
TYPE ASSIGNMENTS     11 14 15 17 20 18 12 16 19 13 21 21 24 24 25 25 30 30 33 33
TYPE ASSIGNMENTS     31 31 26 26 34 34 35 35 28 28 22 22 27 27 32 32 29 29 23 23
TYPE ASSIGNMENTS     21 24 25 30 33 31 26 34 35 28 22 27 32 29 23  1  1  1  1  1
TYPE ASSIGNMENTS      1  1  1  1  1  1  1  1  2  2  2  2  3  3  3  3  4  4  4  4
TYPE ASSIGNMENTS      2  3  4  2  3  4  2  3  4  2  3  4  2  3  4  5  5  8  8  9
TYPE ASSIGNMENTS      9  6  6 10 10  7  7  5  8  9  6 10  7  5  8  9  6 10  7  5
TYPE ASSIGNMENTS      8  9  6 10  7 11 11 14 14 15 15 17 17 20 20 18 18 12 12 16
TYPE ASSIGNMENTS     16 19 19 13 13 11 14 15 17 20 18 12 16 19 13 11 14 15 17 20
TYPE ASSIGNMENTS     18 12 16 19 13 21 21 24 24 25 25 30 30 33 33 31 31 26 26 34
TYPE ASSIGNMENTS     34 35 35 28 28 22 22 27 27 32 32 29 29 23 23 21 24 25 30 33
TYPE ASSIGNMENTS     31 26 34 35 28 22 27 32 29 23
EXPONENTS  6.3285637E+03 9.4944397E+02 2.1607217E+02 6.1065492E+01 1.9700868E+01
EXPONENTS  6.9353910E+00 5.0024820E+00 5.2857900E-01 2.5266950E+00 9.7429400E-01
EXPONENTS  2.2229200E-01 1.0260000E-01 3.4200000E-02 6.1634545E+01 1.4442338E+01
EXPONENTS  4.4412960E+00 1.5730260E+00 6.1634545E+01 1.4442338E+01 4.4412960E+00
EXPONENTS  1.5730260E+00 6.1634545E+01 1.4442338E+01 4.4412960E+00 1.5730260E+00
EXPONENTS  1.3939466E+01 1.3939466E+01 1.3939466E+01 5.9794200E-01 5.9794200E-01
EXPONENTS  5.9794200E-01 2.2986700E-01 2.2986700E-01 2.2986700E-01 8.6437000E-02
EXPONENTS  8.6437000E-02 8.6437000E-02 2.8812300E-02 2.8812300E-02 2.8812300E-02
EXPONENTS  5.7945660E+00 1.5521940E+00 5.7945660E+00 1.5521940E+00 5.7945660E+00
EXPONENTS  1.5521940E+00 5.7945660E+00 1.5521940E+00 5.7945660E+00 1.5521940E+00
EXPONENTS  5.7945660E+00 1.5521940E+00 6.1888300E-01 6.1888300E-01 6.1888300E-01
EXPONENTS  6.1888300E-01 6.1888300E-01 6.1888300E-01 2.2967600E-01 2.2967600E-01
EXPONENTS  2.2967600E-01 2.2967600E-01 2.2967600E-01 2.2967600E-01 7.6558700E-02
EXPONENTS  7.6558700E-02 7.6558700E-02 7.6558700E-02 7.6558700E-02 7.6558700E-02
EXPONENTS  2.2894950E+00 1.0747640E+00 2.2894950E+00 1.0747640E+00 2.2894950E+00
EXPONENTS  1.0747640E+00 2.2894950E+00 1.0747640E+00 2.2894950E+00 1.0747640E+00
EXPONENTS  2.2894950E+00 1.0747640E+00 2.2894950E+00 1.0747640E+00 2.2894950E+00
EXPONENTS  1.0747640E+00 2.2894950E+00 1.0747640E+00 2.2894950E+00 1.0747640E+00
EXPONENTS  4.4059700E-01 4.4059700E-01 4.4059700E-01 4.4059700E-01 4.4059700E-01
EXPONENTS  4.4059700E-01 4.4059700E-01 4.4059700E-01 4.4059700E-01 4.4059700E-01
EXPONENTS  1.4686570E-01 1.4686570E-01 1.4686570E-01 1.4686570E-01 1.4686570E-01
EXPONENTS  1.4686570E-01 1.4686570E-01 1.4686570E-01 1.4686570E-01 1.4686570E-01
EXPONENTS  1.3396820E+00 5.4291500E-01 1.3396820E+00 5.4291500E-01 1.3396820E+00
EXPONENTS  5.4291500E-01 1.3396820E+00 5.4291500E-01 1.3396820E+00 5.4291500E-01
EXPONENTS  1.3396820E+00 5.4291500E-01 1.3396820E+00 5.4291500E-01 1.3396820E+00
EXPONENTS  5.4291500E-01 1.3396820E+00 5.4291500E-01 1.3396820E+00 5.4291500E-01
EXPONENTS  1.3396820E+00 5.4291500E-01 1.3396820E+00 5.4291500E-01 1.3396820E+00
EXPONENTS  5.4291500E-01 1.3396820E+00 5.4291500E-01 1.3396820E+00 5.4291500E-01
EXPONENTS  1.8792820E-01 1.8792820E-01 1.8792820E-01 1.8792820E-01 1.8792820E-01
EXPONENTS  1.8792820E-01 1.8792820E-01 1.8792820E-01 1.8792820E-01 1.8792820E-01
EXPONENTS  1.8792820E-01 1.8792820E-01 1.8792820E-01 1.8792820E-01 1.8792820E-01
EXPONENTS  1.1371829E+04 1.7060929E+03 3.8826799E+02 1.0975075E+02 3.5465902E+01
EXPONENTS  1.2534049E+01 9.8428230E+00 1.0495500E+00 4.5888600E+00 1.9723430E+00
EXPONENTS  4.3265900E-01 1.9162800E-01 6.3876000E-02 1.1164360E+02 2.6229036E+01
EXPONENTS  8.1625280E+00 2.9239230E+00 1.1164360E+02 2.6229036E+01 8.1625280E+00
EXPONENTS  2.9239230E+00 1.1164360E+02 2.6229036E+01 8.1625280E+00 2.9239230E+00
EXPONENTS  2.5608557E+01 2.5608557E+01 2.5608557E+01 1.1057210E+00 1.1057210E+00
EXPONENTS  1.1057210E+00 4.1363600E-01 4.1363600E-01 4.1363600E-01 1.4797700E-01
EXPONENTS  1.4797700E-01 1.4797700E-01 4.9325700E-02 4.9325700E-02 4.9325700E-02
EXPONENTS  1.0520368E+01 2.9714730E+00 1.0520368E+01 2.9714730E+00 1.0520368E+01
EXPONENTS  2.9714730E+00 1.0520368E+01 2.9714730E+00 1.0520368E+01 2.9714730E+00
EXPONENTS  1.0520368E+01 2.9714730E+00 1.1683940E+00 1.1683940E+00 1.1683940E+00
EXPONENTS  1.1683940E+00 1.1683940E+00 1.1683940E+00 4.2681900E-01 4.2681900E-01
EXPONENTS  4.2681900E-01 4.2681900E-01 4.2681900E-01 4.2681900E-01 1.4227300E-01
EXPONENTS  1.4227300E-01 1.4227300E-01 1.4227300E-01 1.4227300E-01 1.4227300E-01
EXPONENTS  4.8912290E+00 1.9686530E+00 4.8912290E+00 1.9686530E+00 4.8912290E+00
EXPONENTS  1.9686530E+00 4.8912290E+00 1.9686530E+00 4.8912290E+00 1.9686530E+00
EXPONENTS  4.8912290E+00 1.9686530E+00 4.8912290E+00 1.9686530E+00 4.8912290E+00
EXPONENTS  1.9686530E+00 4.8912290E+00 1.9686530E+00 4.8912290E+00 1.9686530E+00
EXPONENTS  7.4764400E-01 7.4764400E-01 7.4764400E-01 7.4764400E-01 7.4764400E-01
EXPONENTS  7.4764400E-01 7.4764400E-01 7.4764400E-01 7.4764400E-01 7.4764400E-01
EXPONENTS  2.4921470E-01 2.4921470E-01 2.4921470E-01 2.4921470E-01 2.4921470E-01
EXPONENTS  2.4921470E-01 2.4921470E-01 2.4921470E-01 2.4921470E-01 2.4921470E-01
EXPONENTS  2.6377970E+00 9.7211900E-01 2.6377970E+00 9.7211900E-01 2.6377970E+00
EXPONENTS  9.7211900E-01 2.6377970E+00 9.7211900E-01 2.6377970E+00 9.7211900E-01
EXPONENTS  2.6377970E+00 9.7211900E-01 2.6377970E+00 9.7211900E-01 2.6377970E+00
EXPONENTS  9.7211900E-01 2.6377970E+00 9.7211900E-01 2.6377970E+00 9.7211900E-01
EXPONENTS  2.6377970E+00 9.7211900E-01 2.6377970E+00 9.7211900E-01 2.6377970E+00
EXPONENTS  9.7211900E-01 2.6377970E+00 9.7211900E-01 2.6377970E+00 9.7211900E-01
EXPONENTS  3.3189570E-01 3.3189570E-01 3.3189570E-01 3.3189570E-01 3.3189570E-01
EXPONENTS  3.3189570E-01 3.3189570E-01 3.3189570E-01 3.3189570E-01 3.3189570E-01
EXPONENTS  3.3189570E-01 3.3189570E-01 3.3189570E-01 3.3189570E-01 3.3189570E-01
MO  1                     OCC NO =   2.00000000 ORB. ENERGY = -19.30291947
  1.31408956E-05  2.44265993E-05  4.09350242E-05  5.99121984E-05  6.90935746E-05
 -9.05757792E-04  9.97358121E-04 -9.65882129E-04 -2.49256059E-05  2.80953946E-04
 -2.00079697E-03 -9.98847032E-04 -4.82008538E-05  0.00000000E+00  0.00000000E+00
  0.00000000E+00  0.00000000E+00  0.00000000E+00  0.00000000E+00  0.00000000E+00
  0.00000000E+00  7.40543445E-05  8.83401053E-05  8.66034529E-05  7.05308070E-05
  0.00000000E+00  0.00000000E+00  5.78079073E-04  0.00000000E+00  0.00000000E+00
 -1.49174390E-03  0.00000000E+00  0.00000000E+00 -5.02400049E-04  0.00000000E+00
  0.00000000E+00 -4.87883913E-05  0.00000000E+00  0.00000000E+00  1.32309957E-06
  2.40594758E-04  3.45795832E-04  0.00000000E+00  0.00000000E+00  0.00000000E+00
  0.00000000E+00  2.40594758E-04  3.45795832E-04  0.00000000E+00  0.00000000E+00
 -4.81189517E-04 -6.91591664E-04  3.05669321E-04  0.00000000E+00  0.00000000E+00
  3.05669321E-04  0.00000000E+00 -6.11338642E-04 -1.01349197E-04  0.00000000E+00
  0.00000000E+00 -1.01349197E-04  0.00000000E+00  2.02698394E-04 -5.68380567E-06
  0.00000000E+00  0.00000000E+00 -5.68380567E-06  0.00000000E+00  1.13676113E-05
  0.00000000E+00  0.00000000E+00  0.00000000E+00  0.00000000E+00  6.48331090E-04
  6.38013633E-04  0.00000000E+00  0.00000000E+00  0.00000000E+00  0.00000000E+00
  0.00000000E+00  0.00000000E+00  0.00000000E+00  0.00000000E+00  6.48331090E-04
  6.38013633E-04  0.00000000E+00  0.00000000E+00 -4.32220727E-04 -4.25342422E-04
  0.00000000E+00  0.00000000E+00 -1.37642537E-04  0.00000000E+00  0.00000000E+00
  0.00000000E+00  0.00000000E+00 -1.37642537E-04  0.00000000E+00  9.17616915E-05
  0.00000000E+00  0.00000000E+00 -3.15217965E-05  0.00000000E+00  0.00000000E+00
  0.00000000E+00  0.00000000E+00 -3.15217965E-05  0.00000000E+00  2.10145310E-05
  3.37920717E-05  3.53405637E-06  0.00000000E+00  0.00000000E+00  0.00000000E+00
  0.00000000E+00  6.75841435E-05  7.06811273E-06  0.00000000E+00  0.00000000E+00
 -2.70336574E-04 -2.82724509E-05  0.00000000E+00  0.00000000E+00  0.00000000E+00
  0.00000000E+00  0.00000000E+00  0.00000000E+00  0.00000000E+00  0.00000000E+00
  3.37920717E-05  3.53405637E-06  0.00000000E+00  0.00000000E+00 -2.70336574E-04
 -2.82724509E-05  0.00000000E+00  0.00000000E+00  9.01121913E-05  9.42415031E-06
  1.47316899E-06  0.00000000E+00  0.00000000E+00  2.94633797E-06  0.00000000E+00
 -1.17853519E-05  0.00000000E+00  0.00000000E+00  0.00000000E+00  0.00000000E+00
  1.47316899E-06  0.00000000E+00 -1.17853519E-05  0.00000000E+00  3.92845063E-06
  5.76709378E-01  1.07316716E+00  1.80052709E+00  2.64739405E+00  3.07833643E+00
  2.16495703E+00 -1.98357308E-02  1.93579371E-02  5.82943128E-01 -1.94513902E-02
 -5.55759377E-03  3.30800734E-03  5.03003394E-04  0.00000000E+00  0.00000000E+00
  0.00000000E+00  0.00000000E+00  0.00000000E+00  0.00000000E+00  0.00000000E+00
  0.00000000E+00 -4.62462699E-03 -5.66323635E-03 -5.69529108E-03 -4.43614403E-03
  0.00000000E+00  0.00000000E+00 -1.30697726E-02  0.00000000E+00  0.00000000E+00
  4.10871325E-04  0.00000000E+00  0.00000000E+00 -1.42167086E-03  0.00000000E+00
  0.00000000E+00 -1.09823128E-03  0.00000000E+00  0.00000000E+00 -3.66404952E-05
 -2.45772180E-04 -3.08397613E-04  0.00000000E+00  0.00000000E+00  0.00000000E+00
  0.00000000E+00 -2.45772180E-04 -3.08397613E-04  0.00000000E+00  0.00000000E+00
  4.91544360E-04  6.16795227E-04 -4.05963357E-04  0.00000000E+00  0.00000000E+00
 -4.05963357E-04  0.00000000E+00  8.11926713E-04 -3.02150304E-04  0.00000000E+00
  0.00000000E+00 -3.02150304E-04  0.00000000E+00  6.04300607E-04 -4.39044455E-05
  0.00000000E+00  0.00000000E+00 -4.39044455E-05  0.00000000E+00  8.78088909E-05
  0.00000000E+00  0.00000000E+00  0.00000000E+00  0.00000000E+00  1.57461081E-03
  1.05906213E-03  0.00000000E+00  0.00000000E+00  0.00000000E+00  0.00000000E+00
  0.00000000E+00  0.00000000E+00  0.00000000E+00  0.00000000E+00  1.57461081E-03
  1.05906213E-03  0.00000000E+00  0.00000000E+00 -1.04974054E-03 -7.06041421E-04
  0.00000000E+00  0.00000000E+00  4.36556186E-04  0.00000000E+00  0.00000000E+00
  0.00000000E+00  0.00000000E+00  4.36556186E-04  0.00000000E+00 -2.91037457E-04
  0.00000000E+00  0.00000000E+00  5.10507699E-06  0.00000000E+00  0.00000000E+00
  0.00000000E+00  0.00000000E+00  5.10507699E-06  0.00000000E+00 -3.40338466E-06
  3.39464407E-04  3.28814133E-05  0.00000000E+00  0.00000000E+00  0.00000000E+00
  0.00000000E+00  6.78928815E-04  6.57628266E-05  0.00000000E+00  0.00000000E+00
 -2.71571526E-03 -2.63051306E-04  0.00000000E+00  0.00000000E+00  0.00000000E+00
  0.00000000E+00  0.00000000E+00  0.00000000E+00  0.00000000E+00  0.00000000E+00
  3.39464407E-04  3.28814133E-05  0.00000000E+00  0.00000000E+00 -2.71571526E-03
 -2.63051306E-04  0.00000000E+00  0.00000000E+00  9.05238420E-04  8.76837688E-05
 -2.60018950E-06  0.00000000E+00  0.00000000E+00 -5.20037899E-06  0.00000000E+00
  2.08015160E-05  0.00000000E+00  0.00000000E+00  0.00000000E+00  0.00000000E+00
 -2.60018950E-06  0.00000000E+00  2.08015160E-05  0.00000000E+00 -6.93383866E-06
MO  2                     OCC NO =   2.00000000 ORB. ENERGY = -10.37622042
  3.72674625E-01  6.92736172E-01  1.16091363E+00  1.69910459E+00  1.95948760E+00
  1.36713929E+00  6.77407582E-03 -6.56029027E-03  3.69381981E-01  4.31484160E-03
 -8.65579716E-03  1.37516678E-04  1.78265021E-05  0.00000000E+00  0.00000000E+00
  0.00000000E+00  0.00000000E+00  0.00000000E+00  0.00000000E+00  0.00000000E+00
  0.00000000E+00  6.36989608E-03  7.59870733E-03  7.44932655E-03  6.06681369E-03
  0.00000000E+00  0.00000000E+00  9.30779866E-04  0.00000000E+00  0.00000000E+00
 -1.32674195E-02  0.00000000E+00  0.00000000E+00 -1.80458441E-03  0.00000000E+00
  0.00000000E+00  2.99028462E-04  0.00000000E+00  0.00000000E+00  5.47783524E-06
 -2.99472126E-04 -4.30417578E-04  0.00000000E+00  0.00000000E+00  0.00000000E+00
  0.00000000E+00 -2.99472126E-04 -4.30417578E-04  0.00000000E+00  0.00000000E+00
  5.98944252E-04  8.60835155E-04  2.19009604E-03  0.00000000E+00  0.00000000E+00
  2.19009604E-03  0.00000000E+00 -4.38019208E-03  2.91993099E-05  0.00000000E+00
  0.00000000E+00  2.91993099E-05  0.00000000E+00 -5.83986198E-05 -1.69999986E-05
  0.00000000E+00  0.00000000E+00 -1.69999986E-05  0.00000000E+00  3.39999972E-05
  0.00000000E+00  0.00000000E+00  0.00000000E+00  0.00000000E+00  1.25015746E-03
  1.23026261E-03  0.00000000E+00  0.00000000E+00  0.00000000E+00  0.00000000E+00
  0.00000000E+00  0.00000000E+00  0.00000000E+00  0.00000000E+00  1.25015746E-03
  1.23026261E-03  0.00000000E+00  0.00000000E+00 -8.33438304E-04 -8.20175075E-04
  0.00000000E+00  0.00000000E+00  3.13937927E-04  0.00000000E+00  0.00000000E+00
  0.00000000E+00  0.00000000E+00  3.13937927E-04  0.00000000E+00 -2.09291951E-04
  0.00000000E+00  0.00000000E+00  1.78156288E-07  0.00000000E+00  0.00000000E+00
  0.00000000E+00  0.00000000E+00  1.78156288E-07  0.00000000E+00 -1.18770859E-07
 -5.30296167E-05 -5.54596521E-06  0.00000000E+00  0.00000000E+00  0.00000000E+00
  0.00000000E+00 -1.06059233E-04 -1.10919304E-05  0.00000000E+00  0.00000000E+00
  4.24236933E-04  4.43677217E-05  0.00000000E+00  0.00000000E+00  0.00000000E+00
  0.00000000E+00  0.00000000E+00  0.00000000E+00  0.00000000E+00  0.00000000E+00
 -5.30296167E-05 -5.54596521E-06  0.00000000E+00  0.00000000E+00  4.24236933E-04
  4.43677217E-05  0.00000000E+00  0.00000000E+00 -1.41412311E-04 -1.47892406E-05
 -2.54220143E-07  0.00000000E+00  0.00000000E+00 -5.08440287E-07  0.00000000E+00
  2.03376115E-06  0.00000000E+00  0.00000000E+00  0.00000000E+00  0.00000000E+00
 -2.54220143E-07  0.00000000E+00  2.03376115E-06  0.00000000E+00 -6.77920383E-07
 -2.11296776E-04 -3.93190694E-04 -6.59683343E-04 -9.69961387E-04 -1.12785155E-03
 -5.53214816E-03  5.69912471E-03 -5.56184688E-03 -2.88445420E-03  2.56285956E-03
  7.26331115E-03  4.93506991E-03  2.86075515E-04  0.00000000E+00  0.00000000E+00
  0.00000000E+00  0.00000000E+00  0.00000000E+00  0.00000000E+00  0.00000000E+00
  0.00000000E+00  2.32688836E-04  2.84946629E-04  2.86559468E-04  2.23205286E-04
  0.00000000E+00  0.00000000E+00 -3.95734281E-03  0.00000000E+00  0.00000000E+00
 -2.25341067E-04  0.00000000E+00  0.00000000E+00 -1.11184317E-02  0.00000000E+00
  0.00000000E+00 -2.24397091E-03  0.00000000E+00  0.00000000E+00 -5.52412496E-05
  9.86482749E-04  1.23784932E-03  0.00000000E+00  0.00000000E+00  0.00000000E+00
  0.00000000E+00  9.86482749E-04  1.23784932E-03  0.00000000E+00  0.00000000E+00
 -1.97296550E-03 -2.47569864E-03 -2.11493551E-03  0.00000000E+00  0.00000000E+00
 -2.11493551E-03  0.00000000E+00  4.22987102E-03 -2.30878836E-03  0.00000000E+00
  0.00000000E+00 -2.30878836E-03  0.00000000E+00  4.61757671E-03 -1.92040510E-04
  0.00000000E+00  0.00000000E+00 -1.92040510E-04  0.00000000E+00  3.84081020E-04
  0.00000000E+00  0.00000000E+00  0.00000000E+00  0.00000000E+00  8.24313684E-04
  5.54422338E-04  0.00000000E+00  0.00000000E+00  0.00000000E+00  0.00000000E+00
  0.00000000E+00  0.00000000E+00  0.00000000E+00  0.00000000E+00  8.24313684E-04
  5.54422338E-04  0.00000000E+00  0.00000000E+00 -5.49542456E-04 -3.69614892E-04
  0.00000000E+00  0.00000000E+00  3.83718367E-03  0.00000000E+00  0.00000000E+00
  0.00000000E+00  0.00000000E+00  3.83718367E-03  0.00000000E+00 -2.55812244E-03
  0.00000000E+00  0.00000000E+00  3.88452775E-04  0.00000000E+00  0.00000000E+00
  0.00000000E+00  0.00000000E+00  3.88452775E-04  0.00000000E+00 -2.58968517E-04
  1.15949830E-03  1.12312048E-04  0.00000000E+00  0.00000000E+00  0.00000000E+00
  0.00000000E+00  2.31899660E-03  2.24624096E-04  0.00000000E+00  0.00000000E+00
 -9.27598638E-03 -8.98496382E-04  0.00000000E+00  0.00000000E+00  0.00000000E+00
  0.00000000E+00  0.00000000E+00  0.00000000E+00  0.00000000E+00  0.00000000E+00
  1.15949830E-03  1.12312048E-04  0.00000000E+00  0.00000000E+00 -9.27598638E-03
 -8.98496382E-04  0.00000000E+00  0.00000000E+00  3.09199546E-03  2.99498794E-04
  2.67134589E-05  0.00000000E+00  0.00000000E+00  5.34269178E-05  0.00000000E+00
 -2.13707671E-04  0.00000000E+00  0.00000000E+00  0.00000000E+00  0.00000000E+00
  2.67134589E-05  0.00000000E+00 -2.13707671E-04  0.00000000E+00  7.12358904E-05
MO  3                     OCC NO =   2.00000000 ORB. ENERGY =  -1.29507494
 -4.53836934E-02 -8.43602541E-02 -1.41374123E-01 -2.06914119E-01 -2.38623127E-01
 -2.22319072E-01 -1.30071982E-02  1.25966992E-02 -9.50903840E-02  5.40133427E-02
  1.68799719E-02  5.46468624E-04 -4.23160836E-05  0.00000000E+00  0.00000000E+00
  0.00000000E+00  0.00000000E+00  0.00000000E+00  0.00000000E+00  0.00000000E+00
  0.00000000E+00  1.86155190E-01  2.22066230E-01  2.17700695E-01  1.77297847E-01
  0.00000000E+00  0.00000000E+00  3.48492748E-02  0.00000000E+00  0.00000000E+00
  4.66251584E-02  0.00000000E+00  0.00000000E+00  1.04288654E-02  0.00000000E+00
  0.00000000E+00  7.84406204E-04  0.00000000E+00  0.00000000E+00 -1.22662920E-05
 -1.31561094E-02 -1.89086738E-02  0.00000000E+00  0.00000000E+00  0.00000000E+00
  0.00000000E+00 -1.31561094E-02 -1.89086738E-02  0.00000000E+00  0.00000000E+00
  2.63122189E-02  3.78173477E-02 -4.66557608E-03  0.00000000E+00  0.00000000E+00
 -4.66557608E-03  0.00000000E+00  9.33115217E-03 -7.87567052E-04  0.00000000E+00
  0.00000000E+00 -7.87567052E-04  0.00000000E+00  1.57513410E-03 -1.60029351E-05
  0.00000000E+00  0.00000000E+00 -1.60029351E-05  0.00000000E+00  3.20058702E-05
  0.00000000E+00  0.00000000E+00  0.00000000E+00  0.00000000E+00 -1.17059683E-02
 -1.15196811E-02  0.00000000E+00  0.00000000E+00  0.00000000E+00  0.00000000E+00
  0.00000000E+00  0.00000000E+00  0.00000000E+00  0.00000000E+00 -1.17059683E-02
 -1.15196811E-02  0.00000000E+00  0.00000000E+00  7.80397889E-03  7.67978739E-03
  0.00000000E+00  0.00000000E+00 -2.54767995E-03  0.00000000E+00  0.00000000E+00
  0.00000000E+00  0.00000000E+00 -2.54767995E-03  0.00000000E+00  1.69845330E-03
  0.00000000E+00  0.00000000E+00  7.76818107E-05  0.00000000E+00  0.00000000E+00
  0.00000000E+00  0.00000000E+00  7.76818107E-05  0.00000000E+00 -5.17878738E-05
  1.81497927E-03  1.89814909E-04  0.00000000E+00  0.00000000E+00  0.00000000E+00
  0.00000000E+00  3.62995854E-03  3.79629819E-04  0.00000000E+00  0.00000000E+00
 -1.45198341E-02 -1.51851928E-03  0.00000000E+00  0.00000000E+00  0.00000000E+00
  0.00000000E+00  0.00000000E+00  0.00000000E+00  0.00000000E+00  0.00000000E+00
  1.81497927E-03  1.89814909E-04  0.00000000E+00  0.00000000E+00 -1.45198341E-02
 -1.51851928E-03  0.00000000E+00  0.00000000E+00  4.83994472E-03  5.06173092E-04
 -2.62595458E-06  0.00000000E+00  0.00000000E+00 -5.25190916E-06  0.00000000E+00
  2.10076366E-05  0.00000000E+00  0.00000000E+00  0.00000000E+00  0.00000000E+00
 -2.62595458E-06  0.00000000E+00  2.10076366E-05  0.00000000E+00 -7.00254554E-06
 -1.24532625E-01 -2.31735998E-01 -3.88799584E-01 -5.71669100E-01 -6.64725305E-01
 -5.04576469E-01 -2.09441400E-01  2.04396475E-01 -1.86527206E-01  7.50037134E-02
  1.51765029E-01  2.79311679E-02  1.53301118E-03  0.00000000E+00  0.00000000E+00
  0.00000000E+00  0.00000000E+00  0.00000000E+00  0.00000000E+00  0.00000000E+00
  0.00000000E+00 -3.28786064E-01 -4.02625594E-01 -4.04904512E-01 -3.15385941E-01
  0.00000000E+00  0.00000000E+00 -4.39519418E-02  0.00000000E+00  0.00000000E+00
 -1.40664081E-01  0.00000000E+00  0.00000000E+00 -6.18731069E-02  0.00000000E+00
  0.00000000E+00 -5.42425674E-03  0.00000000E+00  0.00000000E+00 -1.60744605E-04
 -1.34213075E-02 -1.68412031E-02  0.00000000E+00  0.00000000E+00  0.00000000E+00
  0.00000000E+00 -1.34213075E-02 -1.68412031E-02  0.00000000E+00  0.00000000E+00
  2.68426150E-02  3.36824063E-02 -1.21469514E-02  0.00000000E+00  0.00000000E+00
 -1.21469514E-02  0.00000000E+00  2.42939027E-02 -9.77310462E-03  0.00000000E+00
  0.00000000E+00 -9.77310462E-03  0.00000000E+00  1.95462092E-02 -5.69028385E-04
  0.00000000E+00  0.00000000E+00 -5.69028385E-04  0.00000000E+00  1.13805677E-03
  0.00000000E+00  0.00000000E+00  0.00000000E+00  0.00000000E+00  7.78444650E-03
  5.23571441E-03  0.00000000E+00  0.00000000E+00  0.00000000E+00  0.00000000E+00
  0.00000000E+00  0.00000000E+00  0.00000000E+00  0.00000000E+00  7.78444650E-03
  5.23571441E-03  0.00000000E+00  0.00000000E+00 -5.18963100E-03 -3.49047627E-03
  0.00000000E+00  0.00000000E+00  1.56914842E-02  0.00000000E+00  0.00000000E+00
  0.00000000E+00  0.00000000E+00  1.56914842E-02  0.00000000E+00 -1.04609894E-02
  0.00000000E+00  0.00000000E+00  1.62543011E-03  0.00000000E+00  0.00000000E+00
  0.00000000E+00  0.00000000E+00  1.62543011E-03  0.00000000E+00 -1.08362007E-03
  4.32573819E-03  4.19002353E-04  0.00000000E+00  0.00000000E+00  0.00000000E+00
  0.00000000E+00  8.65147639E-03  8.38004706E-04  0.00000000E+00  0.00000000E+00
 -3.46059056E-02 -3.35201882E-03  0.00000000E+00  0.00000000E+00  0.00000000E+00
  0.00000000E+00  0.00000000E+00  0.00000000E+00  0.00000000E+00  0.00000000E+00
  4.32573819E-03  4.19002353E-04  0.00000000E+00  0.00000000E+00 -3.46059056E-02
 -3.35201882E-03  0.00000000E+00  0.00000000E+00  1.15353019E-02  1.11733961E-03
  1.14955631E-04  0.00000000E+00  0.00000000E+00  2.29911262E-04  0.00000000E+00
 -9.19645050E-04  0.00000000E+00  0.00000000E+00  0.00000000E+00  0.00000000E+00
  1.14955631E-04  0.00000000E+00 -9.19645050E-04  0.00000000E+00  3.06548350E-04
MO  4                     OCC NO =   2.00000000 ORB. ENERGY =  -0.69561826
  5.26968782E-02  9.79541704E-02  1.64155325E-01  2.40256518E-01  2.77075155E-01
  2.42770597E-01  4.20187702E-02 -4.06926844E-02  1.05680611E-01 -6.08225613E-02
 -7.01543716E-02 -6.38325240E-03 -2.11843706E-04  0.00000000E+00  0.00000000E+00
  0.00000000E+00  0.00000000E+00  0.00000000E+00  0.00000000E+00  0.00000000E+00
  0.00000000E+00 -1.04374632E-01 -1.24509454E-01 -1.22061759E-01 -9.94084427E-02
  0.00000000E+00  0.00000000E+00 -3.75163344E-03  0.00000000E+00  0.00000000E+00
 -2.08011535E-02  0.00000000E+00  0.00000000E+00 -1.96676946E-02  0.00000000E+00
  0.00000000E+00 -2.20045104E-04  0.00000000E+00  0.00000000E+00 -3.22321866E-05
  5.95530627E-03  8.55928907E-03  0.00000000E+00  0.00000000E+00  0.00000000E+00
  0.00000000E+00  5.95530627E-03  8.55928907E-03  0.00000000E+00  0.00000000E+00
 -1.19106125E-02 -1.71185781E-02  5.80534057E-04  0.00000000E+00  0.00000000E+00
  5.80534057E-04  0.00000000E+00 -1.16106811E-03  1.77759180E-03  0.00000000E+00
  0.00000000E+00  1.77759180E-03  0.00000000E+00 -3.55518360E-03  2.03003277E-05
  0.00000000E+00  0.00000000E+00  2.03003277E-05  0.00000000E+00 -4.06006553E-05
  0.00000000E+00  0.00000000E+00  0.00000000E+00  0.00000000E+00  2.18157073E-03
  2.14685349E-03  0.00000000E+00  0.00000000E+00  0.00000000E+00  0.00000000E+00
  0.00000000E+00  0.00000000E+00  0.00000000E+00  0.00000000E+00  2.18157073E-03
  2.14685349E-03  0.00000000E+00  0.00000000E+00 -1.45438048E-03 -1.43123566E-03
  0.00000000E+00  0.00000000E+00  1.61454943E-03  0.00000000E+00  0.00000000E+00
  0.00000000E+00  0.00000000E+00  1.61454943E-03  0.00000000E+00 -1.07636628E-03
  0.00000000E+00  0.00000000E+00  1.23377091E-04  0.00000000E+00  0.00000000E+00
  0.00000000E+00  0.00000000E+00  1.23377091E-04  0.00000000E+00 -8.22513939E-05
 -1.57091444E-04 -1.64290021E-05  0.00000000E+00  0.00000000E+00  0.00000000E+00
  0.00000000E+00 -3.14182888E-04 -3.28580042E-05  0.00000000E+00  0.00000000E+00
  1.25673155E-03  1.31432017E-04  0.00000000E+00  0.00000000E+00  0.00000000E+00
  0.00000000E+00  0.00000000E+00  0.00000000E+00  0.00000000E+00  0.00000000E+00
 -1.57091444E-04 -1.64290021E-05  0.00000000E+00  0.00000000E+00  1.25673155E-03
  1.31432017E-04  0.00000000E+00  0.00000000E+00 -4.18910518E-04 -4.38106723E-05
 -8.93941935E-06  0.00000000E+00  0.00000000E+00 -1.78788387E-05  0.00000000E+00
  7.15153548E-05  0.00000000E+00  0.00000000E+00  0.00000000E+00  0.00000000E+00
 -8.93941935E-06  0.00000000E+00  7.15153548E-05  0.00000000E+00 -2.38384516E-05
 -7.08048789E-02 -1.31756953E-01 -2.21057794E-01 -3.25030981E-01 -3.77939473E-01
 -2.72936239E-01 -1.38224622E-01  1.34895132E-01 -1.08442831E-01  4.79564084E-02
  1.19101964E-01  5.17389957E-02  1.19016556E-03  0.00000000E+00  0.00000000E+00
  0.00000000E+00  0.00000000E+00  0.00000000E+00  0.00000000E+00  0.00000000E+00
  0.00000000E+00  8.98894632E-01  1.10077046E+00  1.10700097E+00  8.62258961E-01
  0.00000000E+00  0.00000000E+00  1.02044222E-01  0.00000000E+00  0.00000000E+00
  4.26151446E-01  0.00000000E+00  0.00000000E+00  1.16240165E-01  0.00000000E+00
  0.00000000E+00  1.22336342E-02  0.00000000E+00  0.00000000E+00  3.44945127E-04
  1.93397317E-02  2.42677064E-02  0.00000000E+00  0.00000000E+00  0.00000000E+00
  0.00000000E+00  1.93397317E-02  2.42677064E-02  0.00000000E+00  0.00000000E+00
 -3.86794634E-02 -4.85354128E-02  1.65509724E-02  0.00000000E+00  0.00000000E+00
  1.65509724E-02  0.00000000E+00 -3.31019448E-02  6.69865563E-03  0.00000000E+00
  0.00000000E+00  6.69865563E-03  0.00000000E+00 -1.33973113E-02  4.77481809E-04
  0.00000000E+00  0.00000000E+00  4.77481809E-04  0.00000000E+00 -9.54963619E-04
  0.00000000E+00  0.00000000E+00  0.00000000E+00  0.00000000E+00 -1.73435184E-02
 -1.16650181E-02  0.00000000E+00  0.00000000E+00  0.00000000E+00  0.00000000E+00
  0.00000000E+00  0.00000000E+00  0.00000000E+00  0.00000000E+00 -1.73435184E-02
 -1.16650181E-02  0.00000000E+00  0.00000000E+00  1.15623456E-02  7.77667873E-03
  0.00000000E+00  0.00000000E+00 -1.02570282E-02  0.00000000E+00  0.00000000E+00
  0.00000000E+00  0.00000000E+00 -1.02570282E-02  0.00000000E+00  6.83801879E-03
  0.00000000E+00  0.00000000E+00 -1.53761826E-03  0.00000000E+00  0.00000000E+00
  0.00000000E+00  0.00000000E+00 -1.53761826E-03  0.00000000E+00  1.02507884E-03
 -4.43736287E-03 -4.29814612E-04  0.00000000E+00  0.00000000E+00  0.00000000E+00
  0.00000000E+00 -8.87472574E-03 -8.59629224E-04  0.00000000E+00  0.00000000E+00
  3.54989030E-02  3.43851689E-03  0.00000000E+00  0.00000000E+00  0.00000000E+00
  0.00000000E+00  0.00000000E+00  0.00000000E+00  0.00000000E+00  0.00000000E+00
 -4.43736287E-03 -4.29814612E-04  0.00000000E+00  0.00000000E+00  3.54989030E-02
  3.43851689E-03  0.00000000E+00  0.00000000E+00 -1.18329677E-02 -1.14617230E-03
 -1.20465922E-04  0.00000000E+00  0.00000000E+00 -2.40931845E-04  0.00000000E+00
  9.63727379E-04  0.00000000E+00  0.00000000E+00  0.00000000E+00  0.00000000E+00
 -1.20465922E-04  0.00000000E+00  9.63727379E-04  0.00000000E+00 -3.21242460E-04
MO  5                     OCC NO =   2.00000000 ORB. ENERGY =  -0.59323238
  0.00000000E+00  0.00000000E+00  0.00000000E+00  0.00000000E+00  0.00000000E+00
  0.00000000E+00  0.00000000E+00  0.00000000E+00  0.00000000E+00  0.00000000E+00
  0.00000000E+00  0.00000000E+00  0.00000000E+00  2.53828700E-01  3.02794580E-01
  2.96842029E-01  2.41751422E-01  0.00000000E+00  0.00000000E+00  0.00000000E+00
  0.00000000E+00  0.00000000E+00  0.00000000E+00  0.00000000E+00  0.00000000E+00
  5.13529398E-02  0.00000000E+00  0.00000000E+00  1.32631167E-01  0.00000000E+00
  0.00000000E+00  3.57695532E-02  0.00000000E+00  0.00000000E+00  2.29414168E-03
  0.00000000E+00  0.00000000E+00  7.49543913E-06  0.00000000E+00  0.00000000E+00
  0.00000000E+00  0.00000000E+00  0.00000000E+00  0.00000000E+00  5.08728288E-02
  7.31171880E-02  0.00000000E+00  0.00000000E+00  0.00000000E+00  0.00000000E+00
  0.00000000E+00  0.00000000E+00  0.00000000E+00  0.00000000E+00  4.02446501E-02
  0.00000000E+00  0.00000000E+00  0.00000000E+00  0.00000000E+00  0.00000000E+00
  7.46081877E-03  0.00000000E+00  0.00000000E+00  0.00000000E+00  0.00000000E+00
  0.00000000E+00  1.28965580E-04  0.00000000E+00  0.00000000E+00  0.00000000E+00
 -7.07281653E-03 -6.96026065E-03  0.00000000E+00  0.00000000E+00  0.00000000E+00
  0.00000000E+00 -7.07281653E-03 -6.96026065E-03  0.00000000E+00  0.00000000E+00
  2.82912661E-02  2.78410426E-02  0.00000000E+00  0.00000000E+00  0.00000000E+00
  0.00000000E+00  0.00000000E+00  0.00000000E+00  0.00000000E+00  0.00000000E+00
 -1.36094268E-03  0.00000000E+00  0.00000000E+00 -1.36094268E-03  0.00000000E+00
  5.44377074E-03  0.00000000E+00  0.00000000E+00  0.00000000E+00  0.00000000E+00
 -7.09118656E-05  0.00000000E+00  0.00000000E+00 -7.09118656E-05  0.00000000E+00