From PySCF
GAUSSIAN              2 MOL ORBITALS     23 PRIMITIVES        2 NUCLEI
  Li   1    (CENTRE  1)   0.00000000  0.00000000  0.73607856  CHARGE = 3.0
  H    2    (CENTRE  2)   0.00000000  0.00000000 -2.28565398  CHARGE = 1.0
CENTRE ASSIGNMENTS    1  1  1  1  1  1  1  1  1  1  1  1  1  1  1  1  2  2  2  2
CENTRE ASSIGNMENTS    2  2  2
TYPE ASSIGNMENTS      1  1  1  1  1  1  1  2  2  3  3  4  4  2  3  4  1  1  1  1
TYPE ASSIGNMENTS      2  3  4
EXPONENTS  2.6627786E+02 4.0069783E+01 9.0559944E+00 2.4503009E+00 7.2209572E-01
EXPONENTS  5.2810885E-02 2.0960949E-02 1.4500000E+00 3.0000000E-01 1.4500000E+00
EXPONENTS  3.0000000E-01 1.4500000E+00 3.0000000E-01 8.2000000E-02 8.2000000E-02
EXPONENTS  8.2000000E-02 1.3010701E+01 1.9622572E+00 4.4453796E-01 1.2194962E-01
EXPONENTS  8.0000000E-01 8.0000000E-01 8.0000000E-01
MO  1                     OCC NO =   2.00000000 ORB. ENERGY =  -2.44390261
  2.97328218E-01  5.28350364E-01  7.35165957E-01  6.61401092E-01  2.37441448E-01
  1.58931419E-03 -3.73532127E-04 -2.75990096E-18 -1.48921205E-18 -1.16359851E-19
 -6.27864894E-20  6.16181615E-03  3.32484789E-03  1.28142756E-19 -1.59724269E-21
 -2.29295561E-04  9.06543606E-04  1.53789644E-03  1.75081417E-03 -1.41428652E-04
  3.63477248E-19 -1.76709455E-20  4.09188919E-03
MO  2                     OCC NO =   2.00000000 ORB. ENERGY =  -0.29755836
 -4.54034365E-02 -8.06816197E-02 -1.12263347E-01 -1.00999100E-01 -3.62584412E-02
  2.16206172E-02  1.04814281E-03 -4.79140596E-18 -2.58538970E-18  4.40093633E-17
  2.37469660E-17 -4.41241999E-02 -2.38089306E-02  1.06011538E-18  2.75664679E-18
 -8.12478494E-03  6.47076425E-02  1.09772605E-01  1.24970334E-01  5.78414107E-02
 -1.58379782E-18 -2.71595186E-19  1.84467188E-02
END DATA
RHF      ENERGY =        0.0000000000   VIRIAL(-V/T)  =   0.00000000
