From PySCF
GAUSSIAN             14 MOL ORBITALS     23 PRIMITIVES        2 NUCLEI
  Li   1    (CENTRE  1)   0.00000000  0.00000000  0.73607856  CHARGE = 3.0
  H    2    (CENTRE  2)   0.00000000  0.00000000 -2.28565398  CHARGE = 1.0
CENTRE ASSIGNMENTS    1  1  1  1  1  1  1  1  1  1  1  1  1  1  1  1  2  2  2  2
CENTRE ASSIGNMENTS    2  2  2
TYPE ASSIGNMENTS      1  1  1  1  1  1  1  2  2  3  3  4  4  2  3  4  1  1  1  1
TYPE ASSIGNMENTS      2  3  4
EXPONENTS  2.6627786E+02 4.0069783E+01 9.0559944E+00 2.4503009E+00 7.2209572E-01
EXPONENTS  5.2810885E-02 2.0960949E-02 1.4500000E+00 3.0000000E-01 1.4500000E+00
EXPONENTS  3.0000000E-01 1.4500000E+00 3.0000000E-01 8.2000000E-02 8.2000000E-02
EXPONENTS  8.2000000E-02 1.3010701E+01 1.9622572E+00 4.4453796E-01 1.2194962E-01
EXPONENTS  8.0000000E-01 8.0000000E-01 8.0000000E-01
MO  1                     OCC NO =   2.00000000 ORB. ENERGY = 0.0000
  2.97738453E-01  5.29079349E-01  7.36180293E-01  6.62313652E-01  2.37769055E-01
  1.37888993E-03 -3.81989639E-04  9.49996490E-08  5.12607606E-08  7.87410258E-08
  4.24877872E-08  6.38954204E-03  3.44772626E-03 -9.01886573E-10 -7.42650045E-10
 -1.55894823E-04  2.65360170E-04  4.50167492E-04  5.12491999E-04 -6.42326387E-04
 -9.37360519E-09 -7.75294249E-09  3.84134999E-03
MO  2                     OCC NO =   1.95877174 ORB. ENERGY = 0.0000
 -4.34432960E-02 -7.71984624E-02 -1.07416755E-01 -9.66388041E-02 -3.46931050E-02
  2.36580459E-02  1.27615630E-03 -3.45527202E-07 -1.86442659E-07 -2.90568214E-07
 -1.56787397E-07 -4.23305409E-02 -2.28410920E-02 -3.45246128E-07 -2.85644339E-07
 -8.17455061E-03  6.73533266E-02  1.14260848E-01  1.30079963E-01  5.28751131E-02
  5.17680736E-07  4.29336741E-07  1.71578707E-02
MO  3                     OCC NO =   0.03169332 ORB. ENERGY = 0.0000
  5.10004161E-02  9.06274171E-02  1.26102292E-01  1.13449477E-01  4.07280974E-02
 -6.66371056E-02 -9.87978550E-04  1.31779111E-06  7.11065517E-07  1.14276438E-06
  6.16623031E-07  4.88613866E-02  2.63650642E-02  1.41832535E-06  1.16817753E-06
  2.39234425E-02  1.58334192E-01  2.68604389E-01  3.05791961E-01  2.88068965E-03
  1.69634094E-06  1.40777075E-06  4.13413603E-03
MO  4                     OCC NO =   0.00432151 ORB. ENERGY = 0.0000
 -1.69393986E-02 -3.01012042E-02 -4.18839129E-02 -3.76813772E-02 -1.35275264E-02
  9.15673832E-02 -2.19212362E-02 -3.40940681E-06 -1.83967823E-06 -2.81467438E-06
 -1.51876719E-06 -2.07605387E-01 -1.12021572E-01 -5.26120677E-07 -4.49858987E-07
 -1.84669231E-02  7.41872362E-02  1.25854163E-01  1.43278341E-01 -1.87781676E-01
 -4.88187309E-06 -4.18005215E-06  6.33268295E-01
MO  5                     OCC NO =   0.00243207 ORB. ENERGY = 0.0000
 -1.14256936E-08 -2.03033854E-08 -2.82508706E-08 -2.54162430E-08 -9.12437191E-09
  1.57260913E-08 -1.90771873E-09  3.24208182E-02  1.74939152E-02 -3.84884477E-02
 -2.07679410E-02 -2.55791727E-08 -1.38022389E-08  1.58676973E-02 -1.88407882E-02
 -2.48155002E-09 -2.84407706E-08 -4.82480485E-08 -5.49278642E-08  5.47240260E-09
  5.77665615E-01 -6.85781502E-01 -9.89866419E-08
MO  6                     OCC NO =   0.00243207 ORB. ENERGY = 0.0000
  1.32988779E-06  2.36320219E-06  3.28824568E-06  2.95831065E-06  1.06202662E-06
 -1.28348435E-06  4.46646151E-07 -3.84884632E-02 -2.07679493E-02 -3.24208296E-02
 -1.74939213E-02  8.15885163E-06  4.40242616E-06 -1.88407852E-02 -1.58676950E-02
 -1.89526931E-07  4.06887140E-06  6.90259444E-06  7.85824053E-06 -2.27172175E-06
 -6.85781519E-01 -5.77665630E-01 -1.37709161E-05
MO  7                     OCC NO =   0.00034930 ORB. ENERGY = 0.0000
  1.15741218E-02  2.05671413E-02  2.86178702E-02  2.57464188E-02  9.24290422E-03
 -1.24419931E-01  4.54760615E-03  1.92460221E-06  1.03849408E-06  1.75551845E-06
  9.47258354E-07 -4.51156594E-02 -2.43439112E-02  1.28620132E-06  1.10392855E-06
  5.25284319E-02 -1.44143633E-01 -2.44530962E-01 -2.78385631E-01  3.29516788E-01
 -2.85155582E-05 -2.44198883E-05  6.35523310E-01
MO  8                     OCC NO =  -0.00000000 ORB. ENERGY = 0.0000
  5.83860925E-02  1.03751717E-01  1.44363922E-01  1.29878777E-01  4.66261777E-02
 -6.38008700E-02  4.89439016E-02 -3.89701536E-07 -2.10278641E-07 -3.30932141E-07
 -1.78567325E-07 -5.04451528E-02 -2.72196469E-02 -1.70433872E-07 -1.53995496E-07
 -6.62813342E-02  2.85774598E-02  4.84799336E-02  5.51918532E-02 -1.50545333E-01
  3.27250459E-06  2.82890194E-06 -9.89488997E-03
MO  9                     OCC NO =  -0.00000000 ORB. ENERGY = 0.0000
  1.64009339E-02  2.91443559E-02  4.05525192E-02  3.64835725E-02  1.30975173E-02
 -1.18342061E-01  5.47486611E-02 -1.29063032E-06 -6.96409856E-07 -1.01652958E-06
 -5.48508127E-07 -1.76022504E-01 -9.49797978E-02  9.33282651E-07  7.87690255E-07
  7.96358710E-02  9.49247649E-03  1.61034127E-02  1.83328879E-02  1.19828447E-01
 -7.89375066E-06 -6.76073272E-06  1.80418527E-01
MO  10                    OCC NO =  -0.00000000 ORB. ENERGY = 0.0000
  1.94982839E-06  3.46483273E-06  4.82109456E-06  4.33735699E-06  1.55710103E-06
 -7.58045171E-06  5.85140983E-07  2.43507120E-01  1.31393750E-01  1.99897206E-01
  1.07862323E-01 -1.80100563E-05 -9.71802732E-06 -5.50874147E-02 -4.52167571E-02
  5.09471988E-06 -3.35257299E-06 -5.68743746E-06 -6.47484825E-06  1.54667769E-05
  3.65717473E-01  3.00205883E-01  1.24439849E-07
MO  11                    OCC NO =  -0.00000000 ORB. ENERGY = 0.0000
  9.23239869E-09  1.64059141E-08  2.28277870E-08  2.05372992E-08  7.37284246E-09
 -1.15788913E-07  5.98873144E-09 -1.99897260E-01 -1.07862352E-01  2.43507180E-01
  1.31393783E-01 -2.74167928E-07 -1.47937984E-07  4.52167573E-02 -5.50874147E-02
  8.67344523E-08 -1.25028190E-07 -2.12102768E-07 -2.41467840E-07  3.23058879E-07
 -3.00205875E-01  3.65717467E-01  1.25497568E-07
MO  12                    OCC NO =  -0.00000000 ORB. ENERGY = 0.0000
 -2.35176688E-07 -4.17907488E-07 -5.81491713E-07 -5.23146169E-07 -1.87808253E-07
  9.64189948E-07 -3.43900147E-08 -2.68114056E-01 -1.44671381E-01  4.54821193E-01
  2.45416488E-01  2.25848534E-06  1.21865373E-06  4.71818726E-03 -7.99967399E-03
 -6.37699714E-07  6.64073981E-07  1.12656138E-06  1.28253084E-06 -2.25233382E-06
  2.00462926E-01 -3.40073756E-01  7.47668845E-07
MO  13                    OCC NO =  -0.00000000 ORB. ENERGY = 0.0000
 -1.40814250E-06 -2.50226032E-06 -3.48173622E-06 -3.13238680E-06 -1.12451955E-06
  5.45444025E-06 -2.07015142E-07  4.54821222E-01  2.45416504E-01  2.68114092E-01
  1.44671401E-01  1.20000043E-05  6.47506967E-06 -7.99968080E-03 -4.71819545E-03
 -3.51902403E-06  3.49212690E-06  5.92418224E-06  6.74436972E-06 -1.24289553E-05
 -3.40073715E-01 -2.00462875E-01  4.91819029E-06
MO  14                    OCC NO =  -0.00000000 ORB. ENERGY = 0.0000
  4.77950039E-03  8.49314198E-03  1.18176673E-02  1.06319097E-02  3.81683077E-03
  1.04149141E-02 -1.58175659E-02  1.96488013E-06  1.06022760E-06  1.84466042E-06
  9.95358376E-07 -5.87386964E-01 -3.16947514E-01  1.22524283E-06  1.03452262E-06
  3.95092512E-02 -4.73307176E-02 -8.02937020E-02 -9.14101543E-02  4.87939895E-02
 -2.06968939E-05 -1.75501457E-05 -7.14247862E-01
END DATA
ALDET
From PySCF
CANMO 1
  2.97738453E-01  5.29079349E-01  7.36180293E-01  6.62313652E-01  2.37769055E-01
  1.37888993E-03 -3.81989639E-04  9.49996490E-08  5.12607606E-08  7.87410258E-08
  4.24877872E-08  6.38954204E-03  3.44772626E-03 -9.01886573E-10 -7.42650045E-10
 -1.55894823E-04  2.65360170E-04  4.50167492E-04  5.12491999E-04 -6.42326387E-04
 -9.37360519E-09 -7.75294249E-09  3.84134999E-03
CANMO 2
 -4.30584029E-02 -7.65145099E-02 -1.06465078E-01 -9.57826166E-02 -3.43857357E-02
  2.14151632E-02  1.19027993E-03 -1.65256524E-07 -8.91705940E-08 -1.37048450E-07
 -7.39498289E-08 -4.46883961E-02 -2.41133646E-02 -2.36471090E-07 -1.94670138E-07
 -7.08751748E-03  6.57120722E-02  1.11476559E-01  1.26910196E-01  5.83219822E-02
  2.73815059E-06  2.25860119E-06  3.56892362E-02
CANMO 3
  3.68904128E-02  6.55540305E-02  9.12142676E-02  8.20620373E-02  2.94600798E-02
 -1.37410511E-01  2.40573413E-03  2.15925079E-06  1.16510786E-06  1.95549759E-06
  1.05516489E-06 -2.02756400E-02 -1.09405112E-02  1.80723595E-06  1.52684718E-06
  5.65940531E-02 -3.73309160E-02 -6.33296430E-02 -7.20974659E-02  2.72349845E-01
 -2.41402260E-05 -2.06336467E-05  5.67513637E-01
CANMO 4
  1.85455376E-09  3.29553031E-09  4.58552100E-09  4.12542035E-09  1.48101627E-09
  2.65564581E-09 -1.81908807E-08  3.52194796E-02  1.90040419E-02 -3.59452129E-02
 -1.93956396E-02 -2.69537909E-07 -1.45439677E-07  1.72376998E-02 -1.75960456E-02
  2.79386820E-08 -1.47412185E-08 -2.50075863E-08 -2.84698210E-08  5.71400863E-08
  6.27531744E-01 -6.40466815E-01 -3.46646017E-07
CANMO 5
 -7.65618612E-08 -1.36049944E-07 -1.89304851E-07 -1.70310437E-07 -6.11410491E-08
  1.98184052E-07  1.88318245E-07 -3.59452293E-02 -1.93956484E-02 -3.52194899E-02
 -1.90040475E-02  3.17784921E-06  1.71473231E-06 -1.75960425E-02 -1.72376977E-02
 -4.03371988E-07  3.01196360E-07  5.10961423E-07  5.81702690E-07 -1.10776080E-06
 -6.40466834E-01 -6.27531757E-01  3.50998449E-06
CANMO 6
  1.90133988E-02  3.37866896E-02  4.70120315E-02  4.22949521E-02  1.51837891E-02
  6.49164410E-02 -1.56681070E-02 -2.41403205E-06 -1.30258501E-06 -2.02590768E-06
 -1.09315739E-06 -7.00734487E-02 -3.78108584E-02 -1.39170380E-07 -1.42471460E-07
 -1.82755235E-02  2.14538503E-01  3.63951606E-01  4.14339750E-01 -2.55968997E-01
  3.42224387E-06  3.21165268E-06  9.47137983E-02
CANMO 7
 -3.65079166E-02 -6.48743370E-02 -9.02685173E-02 -8.12111815E-02 -2.91546245E-02
  7.28746166E-02 -1.58471478E-02 -1.83527641E-06 -9.90294868E-07 -1.48119244E-06
 -7.99235069E-07 -2.04929956E-01 -1.10577939E-01 -2.82415506E-07 -2.24903889E-07
 -1.23411215E-02 -6.44117755E-02 -1.09270684E-01 -1.24398924E-01 -5.95930232E-02
  5.71819071E-06  4.61727758E-06  6.87687387E-01
CANMO 8
  5.83860925E-02  1.03751717E-01  1.44363922E-01  1.29878777E-01  4.66261777E-02
 -6.38008700E-02  4.89439016E-02 -3.89701536E-07 -2.10278641E-07 -3.30932141E-07
 -1.78567325E-07 -5.04451528E-02 -2.72196469E-02 -1.70433872E-07 -1.53995496E-07
 -6.62813342E-02  2.85774598E-02  4.84799336E-02  5.51918532E-02 -1.50545333E-01
  3.27250459E-06  2.82890194E-06 -9.89488997E-03
CANMO 9
  1.64009339E-02  2.91443559E-02  4.05525192E-02  3.64835725E-02  1.30975173E-02
 -1.18342061E-01  5.47486611E-02 -1.29063032E-06 -6.96409856E-07 -1.01652958E-06
 -5.48508127E-07 -1.76022504E-01 -9.49797978E-02  9.33282651E-07  7.87690255E-07
  7.96358710E-02  9.49247649E-03  1.61034127E-02  1.83328879E-02  1.19828447E-01
 -7.89375066E-06 -6.76073272E-06  1.80418527E-01
CANMO 10
  1.94982839E-06  3.46483273E-06  4.82109456E-06  4.33735699E-06  1.55710103E-06
 -7.58045171E-06  5.85140983E-07  2.43507120E-01  1.31393750E-01  1.99897206E-01
  1.07862323E-01 -1.80100563E-05 -9.71802732E-06 -5.50874147E-02 -4.52167571E-02
  5.09471988E-06 -3.35257299E-06 -5.68743746E-06 -6.47484825E-06  1.54667769E-05
  3.65717473E-01  3.00205883E-01  1.24439849E-07
CANMO 11
  9.23239869E-09  1.64059141E-08  2.28277870E-08  2.05372992E-08  7.37284246E-09
 -1.15788913E-07  5.98873144E-09 -1.99897260E-01 -1.07862352E-01  2.43507180E-01
  1.31393783E-01 -2.74167928E-07 -1.47937984E-07  4.52167573E-02 -5.50874147E-02
  8.67344523E-08 -1.25028190E-07 -2.12102768E-07 -2.41467840E-07  3.23058879E-07
 -3.00205875E-01  3.65717467E-01  1.25497568E-07
CANMO 12
 -2.35176688E-07 -4.17907488E-07 -5.81491713E-07 -5.23146169E-07 -1.87808253E-07
  9.64189948E-07 -3.43900147E-08 -2.68114056E-01 -1.44671381E-01  4.54821193E-01
  2.45416488E-01  2.25848534E-06  1.21865373E-06  4.71818726E-03 -7.99967399E-03
 -6.37699714E-07  6.64073981E-07  1.12656138E-06  1.28253084E-06 -2.25233382E-06
  2.00462926E-01 -3.40073756E-01  7.47668845E-07
CANMO 13
 -1.40814250E-06 -2.50226032E-06 -3.48173622E-06 -3.13238680E-06 -1.12451955E-06
  5.45444025E-06 -2.07015142E-07  4.54821222E-01  2.45416504E-01  2.68114092E-01
  1.44671401E-01  1.20000043E-05  6.47506967E-06 -7.99968080E-03 -4.71819545E-03
 -3.51902403E-06  3.49212690E-06  5.92418224E-06  6.74436972E-06 -1.24289553E-05
 -3.40073715E-01 -2.00462875E-01  4.91819029E-06
CANMO 14
  4.77950039E-03  8.49314198E-03  1.18176673E-02  1.06319097E-02  3.81683077E-03
  1.04149141E-02 -1.58175659E-02  1.96488013E-06  1.06022760E-06  1.84466042E-06
  9.95358376E-07 -5.87386964E-01 -3.16947514E-01  1.22524283E-06  1.03452262E-06
  3.95092512E-02 -4.73307176E-02 -8.02937020E-02 -9.14101543E-02  4.87939895E-02
 -2.06968939E-05 -1.75501457E-05 -7.14247862E-01
END DATA
NELACTIVE, NDETS, NORBCORE, NORBACTIVE
     2    18     1     6
COEFFICIENT/ OCCUPIED ACTIVE SPIN ORBITALS
 -9.8909494529E-01   1  -1
  7.5689479639E-02   5  -5
  6.5280588369E-02   6  -6
  4.4068641004E-02   2  -2
  4.0679726177E-02   5  -2
  4.0679726177E-02   2  -5
  3.4871662319E-02   3  -3
  3.4871661568E-02   4  -4
 -3.0022972240E-02   2  -6
 -3.0022972240E-02   6  -2
 -2.3577326464E-02   5  -6
 -2.3577326464E-02   6  -5
  2.1373129139E-02   2  -1
  2.1373129139E-02   1  -2
  9.6971395570E-03   1  -6
  9.6971395570E-03   6  -1
 -5.9872236110E-04   1  -5
 -5.9872236110E-04   5  -1
